2023
 Atoms. Timestep: 414
3 -18.2302 21.9475 -18.4252
3 -18.3178 18.3736 -22.1274
4 -21.131 21.306 -15.6683
4 -20.9718 21.3805 -9.46135
4 -21.2755 15.3501 -15.7587
3 -21.925 18.3562 -18.4864
3 -18.2639 21.8387 -6.37882
3 -21.8652 18.8538 -12.5419
3 -18.3247 21.7831 -12.564
3 -18.4856 18.3595 -9.46354
4 -20.8615 21.5997 -3.20678
4 -20.884 21.5108 3.09711
4 -21.5012 15.3109 -3.27119
3 -21.898 19.0868 -6.24169
3 -18.2608 21.8339 6.25682
3 -21.9157 19.2409 -0.100642
3 -18.2331 21.8446 -0.0351712
3 -18.5559 18.3563 3.09906
4 -20.977 21.5182 9.39273
4 -21.1821 21.2756 15.639
4 -21.4507 15.3763 9.55562
3 -21.9227 19.1865 6.26068
3 -18.2225 21.9099 18.3767
3 -21.9064 18.8578 12.4167
3 -18.3978 21.8695 12.5291
3 -18.5021 18.4451 15.6279
4 -21.192 15.5234 21.3774
3 -21.8739 18.2845 18.43
4 -15.4375 21.0668 -15.5201
4 -15.5327 21.0589 -3.20134
4 -15.5068 21.0667 9.37728
4 -15.4576 21.2355 21.3311
4 -21.3204 9.38349 -21.4377
4 -21.2862 15.6111 -21.4784
3 -18.4939 9.37161 -18.7478
3 -21.8982 12.4749 -18.8094
3 -18.6617 6.33318 -22.1503
4 -20.9944 9.34391 -15.5149
4 -20.9203 9.30353 -9.45523
4 -21.2148 3.27429 -15.8126
4 -21.3371 15.0775 -9.51205
3 -21.8633 6.23081 -18.8268
3 -18.0415 9.39613 -6.39057
3 -21.8212 12.1094 -6.44888
3 -21.6933 6.65426 -12.6311
3 -17.8856 9.31328 -12.6407
3 -21.6994 12.0492 -12.5033
3 -18.45 12.4352 -15.7477
3 -18.4044 6.18011 -9.4677
4 -21.0827 9.41189 -3.21499
4 -20.9889 9.36128 3.08347
4 -21.3839 3.65278 -3.17413
4 -21.4473 15.0318 3.10574
3 -21.7382 6.69572 -6.21082
3 -18.0091 9.42304 6.18785
3 -21.8257 12.0249 6.14376
3 -21.7626 6.74437 -0.217949
3 -18.0275 9.42619 0.0389893
3 -21.8467 12.0566 0.0241426
3 -18.5657 12.4934 -3.1965
3 -18.5757 6.1958 3.10279
4 -21.0575 9.41332 9.33278
4 -21.0837 9.38781 15.4024
4 -21.394 3.59954 9.34726
4 -21.222 15.3141 15.663
3 -21.7565 6.7072 6.40607
3 -18.4785 9.29356 18.5677
3 -21.8429 12.3977 18.6639
3 -21.78 6.70689 12.3083
3 -18.0607 9.37192 12.6111
3 -21.8305 12.2629 12.551
3 -18.549 12.4899 9.38694
3 -18.6644 6.16472 15.637
4 -21.2581 9.27136 21.3116
4 -21.1375 3.04394 21.4471
3 -21.8712 6.07705 18.8326
3 -18.658 12.3347 22.0263
4 -15.4548 15.4654 -21.5161
4 -15.5441 21.3115 -21.429
3 -12.4262 15.5477 -18.8753
3 -15.5404 18.5088 -18.7126
3 -12.4735 12.4425 -22.2087
3 -18.6491 12.4498 -22.1265
1 -15.4357 15.501 -15.8605
1 -15.3403 15.4524 -9.45005
1 -15.4494 9.35876 -15.9546
4 -15.403 21.0134 -9.46278
2 -18.6994 12.472 -18.9092
2 -18.7463 18.7786 -18.9201
2 -18.4933 12.3839 -12.6013
2 -18.6371 18.5894 -12.5814
3 -18.5002 15.562 -18.7624
3 -15.5421 12.4411 -18.8431
3 -11.9569 15.5395 -6.43699
3 -15.566 18.1806 -6.35928
3 -18.9368 15.4769 -12.607
3 -15.411 13.1003 -12.7252
3 -11.751 15.4504 -12.6249
3 -15.4789 18.1032 -12.5944
3 -18.4925 18.4248 -15.7072
3 -12.3868 18.4426 -15.7496
3 -12.5613 12.3343 -9.49712
3 -18.2364 12.3981 -9.47972
1 -15.5741 15.6007 -3.22546
1 -15.343 15.493 3.09213
1 -15.6461 9.66229 -3.19238
4 -15.4849 21.0531 3.10061
2 -18.6456 12.4522 -6.35532
2 -18.7128 18.655 -6.33569
2 -18.6718 12.4818 -0.0308266
2 -18.7489 18.6587 -0.0394441
3 -19.0218 15.5398 -6.33245
3 -15.5273 13.0213 -6.21021
3 -11.8998 15.548 6.09717
3 -15.5936 18.1184 6.22531
3 -19.1778 15.559 -0.0871324
3 -15.5683 13.1166 -0.18958
3 -11.959 15.5602 0.123264
3 -15.6041 18.1452 -0.0184171
3 -18.5574 18.4335 -3.19193
3 -12.5593 18.389 -3.18614
3 -12.7592 12.3136 3.11595
3 -18.2877 12.497 3.1013
1 -15.578 15.5904 9.47307
1 -15.4056 15.4621 15.6207
1 -15.6258 9.65297 9.44061
4 -15.4414 21.1697 15.4238
2 -18.6503 12.4837 6.22446
2 -18.74 18.6473 6.22893
2 -18.6384 12.4391 12.5226
2 -18.7013 18.6821 12.5094
3 -19.195 15.5533 6.31078
3 -15.5489 13.1449 6.40755
3 -12.3745 15.5126 18.5473
3 -15.4754 18.4925 18.5548
3 -18.8294 15.5479 12.5212
3 -15.5014 12.917 12.4158
3 -12.0077 15.5314 12.7309
3 -15.5458 18.2758 12.5318
3 -18.5442 18.4525 9.37884
3 -12.5349 18.3604 9.37894
3 -12.6309 12.2855 15.6771
3 -18.3646 12.4355 15.6484
4 -15.3062 15.4544 21.3457
4 -15.4394 9.20239 21.3967
2 -18.6436 12.4048 18.8096
2 -18.6834 18.7248 18.84
3 -18.4147 15.5088 18.6434
3 -15.5028 12.3428 18.8411
3 -18.2125 18.2913 22.0294
3 -12.3678 18.5205 21.9875
4 -9.36265 21.2347 -21.5659
3 -6.35488 21.8924 -18.8627
3 -6.21431 18.6161 -22.1154
3 -12.4726 18.6282 -22.1399
4 -9.38171 21.2624 -15.8397
4 -8.94944 21.2868 -9.44954
1 -9.40072 15.4204 -15.9351
2 -12.4545 18.7049 -18.9142
2 -12.3755 18.5858 -12.6022
3 -12.3704 21.8976 -18.8319
3 -9.35812 18.4712 -18.8126
3 -5.87738 21.7355 -6.54922
3 -12.7675 21.7996 -12.6003
3 -9.30316 19.0134 -12.6285
3 -5.79739 21.6404 -12.3937
3 -6.27233 18.0986 -9.45945
3 -12.331 18.456 -9.47748
4 -9.68486 21.4458 -3.19348
4 -9.03269 21.296 3.09605
1 -9.56308 15.7073 -3.17109
2 -12.481 18.6864 -6.34136
2 -12.5175 18.6983 -0.0353035
3 -12.8799 21.8591 -6.19857
3 -9.40026 18.9902 -6.26649
3 -5.90776 21.749 6.06347
3 -12.9337 21.8698 -0.184208
3 -9.42821 19.0088 -0.117633
3 -5.92594 21.7646 0.146816
3 -6.38607 18.1629 3.09805
3 -12.3724 18.5995 3.10187
4 -9.55411 21.4265 9.44433
4 -9.15415 21.2289 15.6686
1 -9.53135 15.6878 9.42876
2 -12.504 18.6816 6.23338
2 -12.4566 18.6871 12.5015
3 -12.9314 21.8578 6.36444
3 -9.41822 19.0365 6.33121
3 -6.18759 21.8274 18.646
3 -12.7414 21.8803 12.3317
3 -9.3693 18.8909 12.4707
3 -6.02508 21.7857 12.5957
3 -6.26613 18.3106 15.6368
3 -12.3302 18.6663 15.6306
4 -9.23737 21.1878 21.4151
4 -9.35005 15.3077 21.3399
2 -12.3771 18.676 18.7798
3 -12.2745 21.886 18.788
3 -9.27279 18.42 18.6674
4 -3.14339 20.9484 -15.4177
4 -3.2676 21.0404 -3.21112
4 -3.26634 21.0264 9.27478
4 -3.01565 21.2689 21.2383
4 -21.2929 -3.00209 -21.2917
4 -21.2025 3.18637 -21.5412
3 -18.4456 -2.9811 -18.6218
3 -21.8617 0.210621 -18.8236
3 -18.6628 -6.05788 -22.0083
4 -20.9057 -3.02502 -15.3342
4 -20.723 -3.0055 -9.36948
4 -21.1296 -9.03852 -15.5779
4 -21.1715 2.87324 -9.37522
3 -21.8043 -6.10898 -18.6134
3 -17.8606 -2.87514 -6.33029
3 -21.6424 -0.266811 -6.51798
3 -21.5453 -5.75773 -12.4497
3 -17.7336 -2.9643 -12.5541
3 -21.5821 -0.355639 -12.3242
3 -18.4884 0.154312 -15.6936
3 -18.1996 -6.08393 -9.37356
4 -20.9392 -2.93548 -3.17767
4 -20.7718 -2.95821 3.0923
4 -21.0854 -8.72913 -3.14157
4 -21.1638 2.88777 3.09813
3 -21.5187 -5.76404 -6.1956
3 -17.848 -2.87655 6.1494
3 -21.6468 -0.258724 6.02801
3 -21.5303 -5.68499 -0.17471
3 -17.8353 -2.86512 0.0745519
3 -21.6516 -0.261448 0.182973
3 -18.5294 0.207281 -3.15992
3 -18.3241 -6.09725 3.10792
4 -20.9286 -2.92432 9.2529
4 -20.9278 -3.03035 15.3747
4 -21.1807 -8.728 9.25465
4 -21.1918 2.96197 15.6733
3 -21.5359 -5.71579 6.32665
3 -18.3704 -3.09051 18.5415
3 -21.7791 0.0117971 18.6695
3 -21.5895 -5.65758 12.247
3 -17.8509 -2.92683 12.593
3 -21.7211 -0.236545 12.6086
3 -18.5 0.197682 9.36272
3 -18.4642 -6.19623 15.5896
4 -21.2063 -3.15306 21.2388
4 -21.1007 -9.32412 21.3469
3 -21.7709 -6.28966 18.6916
3 -18.6133 -0.109608 22.0174
4 -15.3762 3.1331 -21.5425
4 -15.4279 9.38961 -21.5538
3 -12.3763 3.18649 -18.8655
3 -15.5193 6.2867 -18.9507
3 -12.5429 0.0350787 -22.1717
3 -18.5851 0.0278855 -22.0693
1 -15.3923 3.25724 -15.9117
1 -15.1934 3.1186 -9.42392
1 -15.3701 -2.91541 -15.8735
1 -15.3669 9.18801 -9.42924
2 -18.658 0.105662 -18.8479
2 -18.6692 6.2822 -18.9192
2 -18.3897 0.105344 -12.5361
2 -18.4872 6.23344 -12.5969
3 -18.4289 3.19498 -18.7962
3 -15.4942 0.109405 -18.7468
3 -11.6437 3.31806 -6.58211
3 -15.4195 5.7641 -6.48139
3 -18.9609 3.16384 -12.6151
3 -15.3076 0.845844 -12.7917
3 -11.5315 3.20037 -12.5473
3 -15.3678 5.54896 -12.5635
3 -18.3575 6.25692 -15.7557
3 -12.4944 6.20888 -15.804
3 -12.5198 0.0381701 -9.45102
3 -18.0101 0.1383 -9.42094
1 -15.6672 3.43934 -3.15339
1 -15.1768 3.09793 3.10138
1 -15.4914 -2.47784 -3.14343
1 -15.4007 9.1482 3.10682
2 -18.4791 0.18174 -6.30727
2 -18.5596 6.32625 -6.32711
2 -18.4906 0.188845 -0.0122671
2 -18.5876 6.3532 -0.0315919
3 -18.8726 3.25194 -6.18086
3 -15.3348 0.77049 -6.05094
3 -11.6815 3.31142 5.9768
3 -15.4392 5.76084 6.01799
3 -18.8965 3.26641 -0.153374
3 -15.3452 0.77881 -0.274566
3 -11.6863 3.33225 0.300731
3 -15.4468 5.78329 0.204611
3 -18.2701 6.49464 -3.17584
3 -12.6762 6.23211 -3.16415
3 -12.5847 -0.0129298 3.11981
3 -18.0438 0.219817 3.10088
1 -15.6589 3.3964 9.38474
1 -15.3165 3.05499 15.7401
1 -15.4919 -2.50384 9.37453
1 -15.3887 9.23599 15.7141
2 -18.4837 0.182318 6.2081
2 -18.5758 6.34649 6.23139
2 -18.5313 0.134291 12.4951
2 -18.5929 6.2967 12.4999
3 -18.8882 3.25714 6.35122
3 -15.3451 0.764629 6.47809
3 -12.3176 3.11936 18.5482
3 -15.496 6.2049 18.5845
3 -18.9481 3.21738 12.4153
3 -15.3886 0.768094 12.3589
3 -11.6508 3.23211 12.8284
3 -15.4684 5.70303 12.7739
3 -18.2483 6.46968 9.37683
3 -12.6786 6.18262 9.40257
3 -12.5628 -0.0933303 15.6828
3 -18.2647 0.103979 15.6305
4 -15.2858 3.1568 21.3623
4 -15.3733 -3.16204 21.4109
2 -18.5814 -0.00177837 18.7885
2 -18.6598 6.19288 18.7853
3 -18.3876 3.09689 18.6823
3 -15.442 0.000158692 18.8669
3 -18.5258 6.22804 21.9987
3 -12.5407 6.13667 22.0656
4 -9.36063 9.28748 -21.5679
4 -9.32949 15.4235 -21.5523
3 -6.23754 9.3387 -18.9671
3 -9.35261 12.4088 -18.881
3 -6.35043 6.16402 -22.1928
3 -12.388 6.30243 -22.2008
1 -9.33374 9.39969 -16.0165
1 -8.9689 9.17999 -9.48244
1 -9.38392 3.23416 -15.9704
1 -9.30484 15.3099 -9.44118
2 -12.4169 6.27452 -19.0037
2 -12.4471 12.4519 -19.0088
2 -12.2882 6.27235 -12.6302
2 -12.35 12.3459 -12.6424
3 -12.4294 9.36122 -18.8103
3 -9.32906 6.29055 -18.7489
3 -5.59297 9.31897 -6.64082
3 -9.41339 11.7752 -6.5436
3 -13.1717 9.3139 -12.7695
3 -9.24373 7.03309 -12.8758
3 -5.44405 9.25572 -12.4831
3 -9.30451 11.5842 -12.6226
3 -12.3749 12.4661 -15.8131
3 -6.30482 12.2759 -15.8107
3 -6.52384 5.97232 -9.48172
3 -12.1691 6.56111 -9.48567
1 -9.87927 9.63351 -3.15521
1 -8.90013 9.17204 3.12175
1 -9.53871 3.81333 -3.15296
1 -9.29839 15.2947 3.08885
2 -12.3462 6.36018 -6.33822
2 -12.4521 12.4596 -6.34938
2 -12.3722 6.38136 0.00169231
2 -12.4984 12.484 -0.00971132
3 -13.0655 9.40735 -6.10992
3 -9.29203 7.02432 -6.01361
3 -5.62793 9.31765 5.93539
3 -9.43121 11.7753 6.02549
3 -13.0997 9.42956 -0.264916
3 -9.30381 7.00198 -0.335192
3 -5.63968 9.3294 0.33744
3 -9.44583 11.8166 0.250235
3 -12.3944 12.7247 -3.17659
3 -6.71557 12.1975 -3.16424
3 -6.58851 5.92134 3.12755
3 -12.1236 6.72851 3.12119
1 -9.80617 9.60089 9.43894
1 -9.21676 9.15768 15.827
1 -9.53537 3.72226 9.41691
1 -9.24883 15.3786 15.6733
2 -12.3681 6.36931 6.23665
2 -12.4822 12.4748 6.23744
2 -12.3802 6.27521 12.5504
2 -12.4042 12.4254 12.5522
3 -13.1051 9.41935 6.50488
3 -9.30396 6.98849 6.58589
3 -6.15976 9.28862 18.5443
3 -9.29753 12.3654 18.4972
3 -13.0328 9.35347 12.3757
3 -9.30805 6.9923 12.3386
3 -5.52695 9.31706 12.8683
3 -9.35639 11.7789 12.8481
3 -12.342 12.7078 9.40672
3 -6.65824 12.1983 9.41161
3 -6.43758 6.02832 15.7039
3 -12.2506 6.43214 15.6885
4 -9.19848 9.35695 21.3851
4 -9.32635 3.02599 21.4318
2 -12.3912 6.20789 18.8716
2 -12.3925 12.4111 18.8462
3 -12.3555 9.31012 18.8136
3 -9.29133 6.19664 18.8683
3 -12.3021 12.5022 22.0424
3 -6.35736 12.3064 22.052
4 -3.20664 15.4238 -21.5175
4 -3.16983 21.3106 -21.3727
3 -0.102456 15.4875 -18.9194
3 -3.18021 18.4774 -18.6881
3 -0.080166 12.3462 -22.1604
3 -6.24572 12.5603 -22.2133
1 -3.21829 15.4103 -15.9297
1 -3.01603 15.2643 -9.39078
1 -3.27332 9.35361 -15.9721
4 -3.13043 20.798 -9.42285
2 -6.26297 12.4326 -19.0157
2 -6.26857 18.69 -18.8929
2 -6.22394 12.3102 -12.6293
2 -6.23981 18.4414 -12.5794
3 -6.27348 15.5293 -18.8016
3 -3.17848 12.4118 -18.7899
3 0.357822 15.2941 -6.4762
3 -3.27544 17.9315 -6.37031
3 -7.01077 15.3665 -12.803
3 -3.17952 13.1053 -12.7678
3 0.60265 15.2816 -12.5005
3 -3.16942 17.7968 -12.6105
3 -6.30387 18.5068 -15.7362
3 -0.0803089 18.2958 -15.7024
3 -0.45843 12.0275 -9.45268
3 -6.19806 12.6078 -9.48185
1 -3.69235 15.5986 -3.15619
1 -2.98433 15.289 3.11138
1 -3.52349 9.81657 -3.1513
4 -3.2178 20.8899 3.08604
2 -6.34866 12.3568 -6.33093
2 -6.32618 18.5752 -6.34054
2 -6.36817 12.3757 -0.00737932
2 -6.34587 18.6003 -0.0229501
3 -6.93067 15.4428 -6.09169
3 -3.2943 12.9778 -6.0228
3 0.344503 15.3276 5.98435
3 -3.28744 17.9486 6.15213
3 -6.93743 15.4635 -0.266938
3 -3.30438 12.9778 -0.305794
3 0.346029 15.3242 0.246438
3 -3.29607 17.9376 0.0706673
3 -6.40572 18.6211 -3.18249
3 -0.398147 18.142 -3.15433
3 -0.608044 11.9866 3.12478
3 -6.15095 12.7137 3.12084
1 -3.63692 15.5883 9.38472
1 -2.99639 15.3382 15.7092
1 -3.4699 9.75674 9.41198
4 -3.17692 21.0082 15.3691
2 -6.35514 12.3669 6.2458
2 -6.3469 18.5797 6.20944
2 -6.27802 12.35 12.5557
2 -6.27611 18.5887 12.5054
3 -6.94915 15.4517 6.47618
3 -3.28796 12.9639 6.54859
3 0.0121867 15.4541 18.5838
3 -3.07396 18.437 18.5396
3 -6.86044 15.4452 12.3536
3 -3.20636 13.0347 12.3207
3 0.492458 15.3889 12.771
3 -3.21904 17.948 12.6032
3 -6.37221 18.5773 9.37089
3 -0.358764 18.1457 9.35567
3 -0.264288 12.1913 15.6883
3 -6.03749 12.6446 15.6817
4 -2.98663 15.4355 21.4084
4 -3.16698 9.17399 21.4172
2 -6.2056 12.3828 18.8566
2 -6.16976 18.6285 18.7947
3 -6.16213 15.4926 18.8914
3 -3.10675 12.3426 18.8566
3 -6.06514 18.6947 22.0193
3 -0.00482855 18.5254 21.968
4 3.02198 21.1823 -21.4583
3 6.00444 21.8228 -18.7418
3 6.16226 18.5475 -22.0051
3 -0.130474 18.6559 -22.0929
4 2.90854 21.1647 -15.7233
4 3.15245 21.0667 -9.30329
1 2.91154 15.3534 -15.8466
2 -0.0904259 18.6365 -18.8624
2 -0.0901198 18.3983 -12.549
3 -0.0258573 21.831 -18.7482
3 2.99539 18.3931 -18.7286
3 6.36044 21.5588 -6.46105
3 -0.433573 21.6143 -12.5422
3 2.98353 18.8583 -12.565
3 6.47551 21.5323 -12.2871
3 5.99568 17.9387 -9.37005
3 -0.0263707 18.2909 -9.42647
4 2.47548 21.2656 -3.16093
4 3.2141 21.0368 3.10506
1 2.68822 15.5686 -3.13586
2 -0.204423 18.4309 -6.29098
2 -0.222854 18.4672 -0.0242961
3 -0.488223 21.6187 -6.20955
3 2.87898 18.7101 -6.13003
3 6.37326 21.5531 6.02604
3 -0.564328 21.6509 -0.214889
3 2.86837 18.7584 -0.155128
3 6.38625 21.5456 0.200904
3 5.92885 17.9203 3.10701
3 -0.044867 18.483 3.10168
4 2.52846 21.3064 9.2933
4 3.24468 21.1212 15.6232
1 2.74403 15.5855 9.35478
2 -0.209411 18.4705 6.22143
2 -0.143091 18.5021 12.4696
3 -0.501716 21.6608 6.37205
3 2.88556 18.7298 6.35693
3 6.21661 21.7231 18.6146
3 -0.541107 21.6905 12.2534
3 2.94328 18.8774 12.3668
3 6.42943 21.6393 12.6065
3 6.10195 18.1809 15.6025
3 0.040749 18.5918 15.6059
4 3.18049 21.1191 21.3915
4 3.06281 15.2567 21.3489
2 0.023154 18.6197 18.7542
3 0.16515 21.8324 18.7548
3 3.11393 18.3441 18.6501
4 9.18287 20.8969 -15.2738
4 9.07747 20.854 -3.11846
4 9.10272 20.8627 9.25021
4 9.35503 21.1561 21.2331
4 -21.2401 -15.3354 -21.165
4 -21.2125 -9.18263 -21.3172
3 -18.422 -15.3323 -18.4631
3 -21.8195 -12.1601 -18.589
3 -18.3129 -18.1036 -21.8894
4 -20.9705 -15.2251 -15.2235
4 -20.7225 -15.1638 -9.26806
4 -21.1808 -20.9284 -15.4095
4 -21.0327 -9.13961 -9.22553
3 -21.86 -18.0136 -18.1423
3 -17.9566 -15.2244 -6.20344
3 -21.5479 -12.409 -6.34854
3 -21.5899 -18.1494 -12.2836
3 -17.9194 -15.2815 -12.3976
3 -21.5871 -12.5018 -12.2246
3 -18.4269 -12.1592 -15.5424
3 -18.1303 -18.2559 -9.27933
4 -20.8483 -15.1344 -3.07883
4 -20.674 -15.1338 3.10717
4 -21.1029 -20.6783 -3.07655
4 -20.9625 -9.24378 3.10879
3 -21.5351 -18.0645 -6.18878
3 -17.9188 -15.2267 6.18247
3 -21.5178 -12.4431 6.06944
3 -21.5095 -18.0284 0.0256111
3 -17.8903 -15.2105 0.0214222
3 -21.5139 -12.4555 0.172714
3 -18.3325 -12.096 -3.10286
3 -18.0871 -18.2335 3.10045
4 -20.8411 -15.1546 9.26979
4 -20.8728 -15.2758 15.3507
4 -21.0961 -20.7533 9.2402
4 -21.0759 -9.33145 15.5698
3 -21.5213 -18.0605 6.16915
3 -18.3013 -15.4425 18.5084
3 -21.7023 -12.3273 18.5697
3 -21.5852 -18.1555 12.3549
3 -17.9461 -15.27 12.4334
3 -21.6052 -12.517 12.495
3 -18.2601 -12.147 9.32732
3 -18.2293 -18.3526 15.4975
4 -21.1227 -15.4829 21.2061
3 -21.7436 -18.1461 18.1873
3 -18.4741 -12.4025 21.941
4 -15.3577 -9.23898 -21.4031
4 -15.3992 -2.96663 -21.4559
3 -12.3366 -9.1641 -18.7447
3 -15.4618 -6.0646 -18.8595
3 -12.4642 -12.3449 -22.0308
3 -18.5354 -12.2745 -21.9092
1 -15.3303 -9.08608 -15.7348
1 -15.1429 -9.20203 -9.29977
1 -15.3631 -15.2049 -15.6275
1 -15.1656 -3.11333 -9.34158
2 -18.6184 -12.2487 -18.6937
2 -18.6099 -6.07029 -18.7817
2 -18.3777 -12.1874 -12.4084
2 -18.3207 -6.03886 -12.4862
3 -18.39 -9.15406 -18.623
3 -15.4513 -12.2258 -18.5738
3 -11.5376 -8.95642 -6.50489
3 -15.1803 -6.45223 -6.44715
3 -18.7517 -9.11714 -12.4575
3 -15.2486 -11.6042 -12.6391
3 -11.4317 -9.06455 -12.4232
3 -15.2041 -6.73663 -12.4147
3 -18.2372 -6.07051 -15.6256
3 -12.4342 -6.12709 -15.7031
3 -12.3662 -12.219 -9.36545
3 -17.9713 -12.1531 -9.30945
1 -15.3978 -8.8919 -3.12564
1 -15.0388 -9.20109 3.09862
1 -15.2659 -14.9857 -3.1185
1 -15.1663 -3.1515 3.11137
2 -18.3559 -12.13 -6.21441
2 -18.3252 -5.94704 -6.24823
2 -18.322 -12.1159 0.0117857
2 -18.3385 -5.93679 -0.0112004
3 -18.5293 -9.04178 -6.14499
3 -15.1805 -11.7029 -5.9897
3 -11.502 -8.96467 5.96975
3 -15.1925 -6.49356 5.98612
3 -18.5897 -9.0332 -0.0976582
3 -15.1584 -11.6393 -0.237932
3 -11.5068 -8.94547 0.293897
3 -15.1896 -6.47073 0.239189
3 -18.0229 -5.80581 -3.12961
3 -12.4321 -6.10631 -3.12841
3 -12.3305 -12.2405 3.11331
3 -17.9139 -12.1079 3.10673
1 -15.4257 -8.95425 9.33497
1 -15.2076 -9.2674 15.7209
1 -15.2762 -15.0648 9.29615
1 -15.2635 -3.15164 15.715
2 -18.3252 -12.1313 6.20544
2 -18.3358 -5.95391 6.22446
2 -18.3909 -12.1692 12.437
2 -18.3932 -6.00478 12.454
3 -18.5855 -9.05039 6.32135
3 -15.1634 -11.6611 6.41252
3 -12.2341 -9.24135 18.5689
3 -15.3982 -6.17748 18.6019
3 -18.778 -9.09132 12.3461
3 -15.2389 -11.5826 12.3846
3 -11.4882 -9.05037 12.7614
3 -15.2841 -6.65866 12.7379
3 -18.022 -5.82353 9.34653
3 -12.4605 -6.14546 9.38731
3 -12.3133 -12.3788 15.6468
3 -18.1931 -12.2404 15.5585
4 -15.2507 -9.24812 21.3326
4 -15.2933 -15.3677 21.3351
2 -18.5092 -12.3621 18.7176
2 -18.5615 -6.18144 18.7406
3 -18.316 -9.26769 18.6172
3 -15.3566 -12.3277 18.7075
3 -18.4856 -6.1711 21.9551
3 -12.4547 -6.28643 22.0681
4 -9.30665 -3.1009 -21.5079
4 -9.25273 3.20738 -21.53
3 -6.17686 -3.01526 -18.9167
3 -9.30278 0.0684494 -18.9412
3 -6.32695 -6.27094 -22.1028
3 -12.3136 -6.10243 -22.0961
1 -9.33005 -2.86299 -15.9224
1 -8.64217 -3.18222 -9.43742
1 -9.32481 -9.07554 -15.8614
1 -9.05399 2.75648 -9.48884
2 -12.3558 -6.07394 -18.9011
2 -12.3961 0.0972789 -18.9754
2 -12.1405 -5.9788 -12.5398
2 -12.2391 0.109287 -12.5967
3 -12.3835 -2.98688 -18.7237
3 -9.26474 -6.04948 -18.6198
3 -5.37985 -2.92282 -6.64629
3 -9.198 -0.510633 -6.6426
3 -13.0208 -2.94522 -12.7453
3 -9.08804 -5.27905 -12.8354
3 -5.33626 -3.01972 -12.3469
3 -9.18013 -0.663561 -12.412
3 -12.2071 0.182804 -15.7723
3 -6.34182 -0.116699 -15.7603
3 -6.27204 -6.38938 -9.41986
3 -11.9014 -5.64685 -9.41149
1 -9.69377 -2.59252 -3.1436
1 -8.59311 -3.16964 3.13171
1 -9.31847 -8.55167 -3.12422
1 -9.03299 2.71872 3.13113
2 -12.1082 -5.86649 -6.2777
2 -12.2373 0.252055 -6.30544
2 -12.1134 -5.86427 0.0154051
2 -12.2468 0.253998 -0.00719493
3 -12.8307 -2.81744 -5.97902
3 -9.04139 -5.28459 -5.93308
3 -5.38417 -2.93923 5.93834
3 -9.19943 -0.50186 5.92833
3 -12.8374 -2.81802 -0.319783
3 -9.03628 -5.28491 -0.361446
3 -5.37472 -2.91918 0.361638
3 -9.1986 -0.487852 0.352062
3 -12.0392 0.633238 -3.15283
3 -6.50293 -0.134114 -3.15795
3 -6.28447 -6.38173 3.13574
3 -11.8446 -5.51299 3.12579
1 -9.677 -2.65621 9.4089
1 -9.09778 -3.17727 15.8586
1 -9.32654 -8.61797 9.39241
1 -9.11858 3.00333 15.8506
2 -12.1218 -5.89023 6.23615
2 -12.2489 0.229679 6.24522
2 -12.2165 -5.98371 12.5327
2 -12.2905 0.165137 12.5496
3 -12.8404 -2.84348 6.55819
3 -9.04832 -5.31092 6.60166
3 -6.07281 -3.08133 18.6009
3 -9.24146 -0.0301641 18.5805
3 -12.967 -2.91984 12.3331
3 -9.14773 -5.27416 12.319
3 -5.37585 -2.95086 12.8713
3 -9.25662 -0.621571 12.8711
3 -12.1048 0.540368 9.40703
3 -6.49894 -0.133639 9.42454
3 -6.30458 -6.28804 15.7139
3 -12.1271 -5.92465 15.6844
4 -9.14497 -3.02277 21.4245
4 -9.25812 -9.29511 21.4495
2 -12.2984 -6.15712 18.8727
2 -12.3332 0.0298297 18.8665
3 -12.2997 -3.06503 18.8322
3 -9.20191 -6.15999 18.8652
3 -12.2899 0.136426 22.0637
3 -6.3047 -0.10577 22.1038
4 -3.18293 3.06578 -21.5175
4 -3.07419 9.32623 -21.5555
3 -0.0288963 3.11871 -18.9345
3 -3.15614 6.21038 -18.9426
3 -0.136209 -0.0887349 -22.1347
3 -6.12402 0.158739 -22.1559
1 -3.24651 3.26368 -15.9225
1 -2.58386 2.83618 -9.48535
1 -3.21521 -2.89621 -15.8899
1 -2.95722 8.76541 -9.47598
2 -6.20526 0.077295 -18.9638
2 -6.24385 6.24267 -19.0002
2 -6.08895 0.0585831 -12.6068
2 -6.1988 6.17077 -12.6286
3 -6.2744 3.16084 -18.6903
3 -3.1228 0.114082 -18.6434
3 0.644384 3.07127 -6.64814
3 -3.20149 5.4734 -6.67046
3 -6.92301 3.10952 -12.9042
3 -3.02332 0.753678 -12.9041
3 0.719929 3.03393 -12.3755
3 -3.12272 5.4089 -12.4048
3 -6.07302 6.38047 -15.7947
3 -0.227007 5.98838 -15.763
3 -0.227041 -0.361504 -9.45006
3 -5.82747 0.383085 -9.46508
1 -3.71093 3.41322 -3.16329
1 -2.56382 2.83961 3.14234
1 -3.28705 -2.41938 -3.15217
1 -2.96679 8.7351 3.12902
2 -6.13279 0.137833 -6.31272
2 -6.24389 6.25361 -6.32928
2 -6.126 0.133982 -0.00711803
2 -6.2511 6.25532 -0.0109153
3 -6.91067 3.18928 -5.98043
3 -3.05833 0.765256 -5.96837
3 0.634098 3.06819 5.94738
3 -3.19685 5.5066 5.93026
3 -6.89124 3.18546 -0.360507
3 -3.05275 0.765905 -0.362844
3 0.637233 3.0694 0.358879
3 -3.20771 5.49875 0.355559
3 -6.00174 6.63157 -3.1659
3 -0.516456 5.8382 -3.15675
3 -0.274235 -0.373964 3.1491
3 -5.78049 0.440956 3.13567
1 -3.65081 3.39283 9.43322
1 -2.95895 2.9476 15.89
1 -3.2952 -2.49186 9.45467
1 -2.97879 9.16185 15.8656
2 -6.12473 0.118357 6.27447
2 -6.25039 6.24255 6.26171
2 -6.19773 0.099603 12.5745
2 -6.23043 6.25701 12.5649
3 -6.8807 3.17336 6.61404
3 -3.05483 0.745995 6.62509
3 0.0767655 3.06072 18.6167
3 -3.09805 6.1188 18.59
3 -6.95883 3.17549 12.3251
3 -3.11032 0.805329 12.3451
3 0.688901 3.12491 12.8909
3 -3.19195 5.44598 12.8681
3 -6.02091 6.59585 9.41779
3 -0.467239 5.91113 9.42891
3 -0.198287 -0.169844 15.7453
3 -5.98806 0.265751 15.7211
4 -3.0047 3.14567 21.4655
4 -3.11636 -3.15919 21.4871
2 -6.15076 0.0037582 18.9131
2 -6.18663 6.19741 18.8927
3 -6.18149 3.10108 18.909
3 -3.05703 0.00728216 18.9193
3 -6.12401 6.36266 22.0825
3 -0.135598 6.08238 22.1033
4 2.97062 9.22806 -21.4737
4 3.06625 15.3455 -21.4879
3 6.10697 9.26432 -18.8823
3 2.99487 12.3451 -18.814
3 6.05263 6.08886 -22.1055
3 0.0509716 6.34244 -22.1539
1 2.91284 9.34794 -15.9205
1 3.38371 8.95822 -9.44546
1 2.88876 3.1947 -15.902
1 3.04309 15.1009 -9.37157
2 -0.0638492 6.20817 -18.9622
2 -0.0929386 12.3826 -18.9641
2 -0.0231454 6.11252 -12.6066
2 -0.140947 12.2124 -12.592
3 -0.118479 9.29452 -18.6874
3 3.01934 6.23953 -18.6397
3 6.6357 9.08707 -6.60655
3 2.81927 11.5707 -6.56007
3 -0.859716 9.16266 -12.8727
3 3.03506 6.854 -12.887
3 6.81216 9.10543 -12.3677
3 2.94028 11.4693 -12.4772
3 -0.0402559 12.4636 -15.7634
3 5.97313 12.153 -15.7167
3 5.74709 5.72876 -9.43255
3 0.235131 6.37447 -9.45651
1 2.35029 9.42935 -3.13695
1 3.39825 8.90883 3.13894
1 2.7123 3.5667 -3.15003
1 3.0576 15.0428 3.11541
2 -0.132903 6.11449 -6.30633
2 -0.249642 12.2269 -6.30738
2 -0.133796 6.11355 -0.0105731
2 -0.255099 12.2494 0.00765393
3 -0.878199 9.16597 -5.97666
3 2.9346 6.78083 -5.9457
3 6.63739 9.07109 5.91934
3 2.83741 11.6013 5.95755
3 -0.86098 9.17319 -0.348381
3 2.93463 6.76221 -0.362623
3 6.6152 9.07398 0.359854
3 2.81003 11.5875 0.325184
3 -0.0501185 12.5586 -3.14506
3 5.55501 11.88 -3.13018
3 5.65236 5.644 3.14093
3 0.237553 6.41463 3.1335
1 2.43587 9.4372 9.41738
1 3.1588 9.05478 15.8483
1 2.7338 3.5536 9.45023
1 3.13719 15.2506 15.721
2 -0.119119 6.11802 6.27541
2 -0.233182 12.2535 6.23872
2 -0.133323 6.16496 12.5736
2 -0.137806 12.3118 12.5416
3 -0.827322 9.18268 6.58745
3 2.94682 6.76735 6.62776
3 6.21164 9.19547 18.5735
3 3.07694 12.2691 18.5392
3 -0.857086 9.24306 12.3278
3 2.96278 6.87453 12.3414
3 6.78939 9.16662 12.8541
3 2.92076 11.5752 12.8192
3 0.0060193 12.5834 9.39341
3 5.65447 11.9396 9.39716
3 5.92042 5.92153 15.722
3 0.122166 6.38144 15.7154
4 3.16497 9.29494 21.4354
4 3.03824 2.9795 21.4795
2 -0.00991357 6.14731 18.9117
2 -0.00882153 12.3497 18.8726
3 -0.0107222 9.2508 18.8815
3 3.08528 6.14716 18.9081
3 0.103038 12.5116 22.0683
3 6.1108 12.243 22.0407
4 9.1602 15.3718 -21.3776
4 9.20369 21.2501 -21.2485
3 12.2282 15.44 -18.7405
3 9.17021 18.4206 -18.5626
3 12.2651 12.3029 -22.0311
3 6.18126 12.5019 -22.1096
1 9.08985 15.3362 -15.7956
1 9.23517 15.0965 -9.29691
1 9.03823 9.29268 -15.8518
4 9.10068 20.6635 -9.31927
2 6.08446 12.3582 -18.9151
2 6.08397 18.6195 -18.7846
2 6.02689 12.1625 -12.5491
2 6.03808 18.3355 -12.4796
3 6.08089 15.4555 -18.6819
3 9.16968 12.3452 -18.6459
3 12.577 15.1368 -6.37146
3 9.02139 17.8107 -6.27683
3 5.33698 15.2408 -12.7312
3 9.08717 12.9252 -12.6963
3 12.7942 15.1859 -12.3907
3 9.10657 17.7135 -12.4918
3 6.02851 18.4391 -15.6315
3 12.2181 18.2372 -15.5622
3 11.8869 11.8614 -9.37267
3 6.12894 12.4214 -9.40599
1 8.64021 15.3829 -3.12479
1 9.28087 15.0733 3.11987
1 8.80932 9.52788 -3.12435
4 9.06677 20.6766 3.10122
2 5.89779 12.129 -6.26685
2 5.95424 18.389 -6.26538
2 5.89693 12.1258 0.00373948
2 5.94277 18.3788 0.00482095
3 5.42126 15.2305 -6.00021
3 8.9843 12.7034 -5.95703
3 12.5654 15.1376 6.04996
3 9.02688 17.8088 6.16061
3 5.39102 15.2267 -0.277588
3 8.98279 12.7035 -0.307779
3 12.5902 15.1279 0.18222
3 9.0091 17.7711 0.0633633
3 5.94869 18.4368 -3.13085
3 12.0005 17.9805 -3.11036
3 11.7745 11.7897 3.12061
3 6.18673 12.4694 3.12536
1 8.68531 15.4007 9.34285
1 9.31922 15.2183 15.6756
1 8.89122 9.50168 9.39067
4 9.21453 20.8623 15.381
2 5.92653 12.1235 6.2483
2 5.95935 18.3827 6.20408
2 5.99417 12.2004 12.5272
2 6.02272 18.4499 12.4724
3 5.43648 15.2306 6.49483
3 9.00919 12.6954 6.55251
3 12.3589 15.3535 18.6005
3 9.29081 18.3145 18.5462
3 5.40289 15.3045 12.3145
3 9.08376 12.8823 12.3089
3 12.7781 15.2179 12.6074
3 9.09487 17.8113 12.5322
3 5.97994 18.4296 9.34578
3 12.0369 18.0026 9.32366
3 12.1637 12.1314 15.6446
3 6.27317 12.4949 15.6571
4 9.34701 15.309 21.3919
4 9.2284 9.13939 21.3945
2 6.16634 12.2849 18.8427
2 6.20649 18.5282 18.7605
3 6.1999 15.3885 18.8392
3 9.26427 12.2544 18.7703
3 6.29806 18.5617 21.9903
3 12.3865 18.4488 21.925
4 15.4137 21.2236 -21.2149
3 18.1295 21.8272 -18.2008
3 18.181 18.2578 -21.9032
3 12.2714 18.6125 -21.9364
4 15.1163 21.1124 -15.4778
4 15.0104 21.0402 -9.26866
1 15.2575 15.3306 -15.607
2 12.27 18.5933 -18.7184
2 12.1749 18.3054 -12.4378
3 12.2611 21.7881 -18.5364
3 15.3563 18.3968 -18.5396
3 18.5418 21.5946 -6.20636
3 11.9522 21.52 -12.3421
3 15.2723 18.6363 -12.4279
3 18.55 21.6573 -12.2761
3 18.1353 18.1829 -9.29051
3 12.1746 18.118 -9.33466
4 14.8048 21.0292 -3.11718
4 15.0352 21.0094 3.10879
1 15.0956 15.2365 -3.104
2 12.0953 18.2777 -6.21745
2 12.0826 18.2697 -0.00502274
3 11.8875 21.4754 -6.18749
3 15.1932 18.5359 -6.17356
3 18.5355 21.5897 6.09751
3 11.8585 21.4716 -0.065846
3 15.1826 18.5603 -0.0473497
3 18.5723 21.5755 0.0488539
3 18.1034 18.1504 3.08823
3 12.169 18.1713 3.10574
4 14.855 21.0644 9.24739
4 15.2789 21.0773 15.5112
1 15.144 15.2493 9.26599
2 12.1024 18.284 6.21457
2 12.1745 18.3326 12.4282
3 11.9105 21.486 6.24029
3 15.2047 18.5166 6.24019
3 18.2776 21.7181 18.2525
3 11.8848 21.5343 12.2781
3 15.271 18.6805 12.3712
3 18.6066 21.6663 12.3695
3 18.3051 18.2823 15.4799
3 12.3226 18.3197 15.5584
4 15.5567 21.0796 21.267
4 15.4029 15.2464 21.2651
2 12.3904 18.5137 18.7146
3 12.4262 21.7174 18.6092
3 15.4776 18.302 18.543
4 21.0726 21.0222 -15.3986
4 21.0582 20.7574 -3.087
4 21.0664 20.8274 9.21679
4 -21.0664 -20.8274 -9.21679
4 -21.0582 -20.7574 3.087
4 -21.0726 -21.0222 15.3986
4 -15.5567 -21.0796 -21.267
4 -15.4029 -15.2464 -21.2651
3 -12.4262 -21.7174 -18.6092
3 -15.4776 -18.302 -18.543
4 -15.2789 -21.0773 -15.5112
4 -14.855 -21.0644 -9.24739
1 -15.144 -15.2493 -9.26599
2 -18.6965 -18.5361 -18.6833
2 -18.3953 -18.4412 -12.3749
3 -18.2776 -21.7181 -18.2525
3 -11.9105 -21.486 -6.24029
3 -15.2047 -18.5166 -6.24019
3 -18.6066 -21.6663 -12.3695
3 -11.8848 -21.5343 -12.2781
3 -15.271 -18.6805 -12.3712
3 -18.3051 -18.2823 -15.4799
3 -12.3226 -18.3197 -15.5584
4 -15.0352 -21.0094 -3.10879
4 -14.8048 -21.0292 3.11718
1 -15.0956 -15.2365 3.104
2 -18.3379 -18.3791 -6.17892
2 -18.3116 -18.3643 0.00427892
3 -18.5355 -21.5897 -6.09751
3 -11.8875 -21.4754 6.18749
3 -15.1932 -18.5359 6.17356
3 -18.5723 -21.5755 -0.0488539
3 -11.8585 -21.4716 0.065846
3 -15.1826 -18.5603 0.0473497
3 -18.1034 -18.1504 -3.08823
3 -12.169 -18.1713 -3.10574
4 -15.0104 -21.0402 9.26866
4 -15.1163 -21.1124 15.4778
1 -15.2575 -15.3306 15.607
2 -18.3253 -18.3828 6.19474
2 -18.3936 -18.4291 12.3871
3 -18.5418 -21.5946 6.20636
3 -12.2611 -21.7881 18.5364
3 -15.3563 -18.3968 18.5396
3 -18.55 -21.6573 12.2761
3 -11.9522 -21.52 12.3421
3 -15.2723 -18.6363 12.4279
3 -18.1353 -18.1829 9.29051
3 -12.1746 -18.118 9.33466
4 -15.4137 -21.2236 21.2149
2 -18.5723 -18.6536 18.6968
3 -18.1295 -21.8272 18.2008
3 -18.181 -18.2578 21.9032
3 -12.2714 -18.6125 21.9364
4 -9.34701 -15.309 -21.3919
4 -9.2284 -9.13939 -21.3945
3 -6.1999 -15.3885 -18.8392
3 -9.26427 -12.2544 -18.7703
3 -6.29806 -18.5617 -21.9903
3 -12.3865 -18.4488 -21.925
1 -9.31922 -15.2183 -15.6756
1 -8.68531 -15.4007 -9.34285
4 -9.21453 -20.8623 -15.381
1 -8.89122 -9.50168 -9.39067
2 -12.3904 -18.5137 -18.7146
2 -12.3591 -12.26 -18.8336
2 -12.1745 -18.3326 -12.4282
2 -12.1422 -12.1307 -12.4937
3 -12.3589 -15.3535 -18.6005
3 -9.29081 -18.3145 -18.5462
3 -5.43648 -15.2306 -6.49483
3 -9.00919 -12.6954 -6.55251
3 -12.7781 -15.2179 -12.6074
3 -9.09487 -17.8113 -12.5322
3 -5.40289 -15.3045 -12.3145
3 -9.08376 -12.8823 -12.3089
3 -12.1637 -12.1314 -15.6446
3 -6.27317 -12.4949 -15.6571
3 -5.97994 -18.4296 -9.34578
3 -12.0369 -18.0026 -9.32366
1 -9.28087 -15.0733 -3.11987
1 -8.64021 -15.3829 3.12479
4 -9.06677 -20.6766 -3.10122
1 -8.80932 -9.52788 3.12435
2 -12.1024 -18.284 -6.21457
2 -12.063 -12.0395 -6.23708
2 -12.0826 -18.2697 0.00502274
2 -12.0401 -12.033 -0.00591361
3 -12.5654 -15.1376 -6.04996
3 -9.02688 -17.8088 -6.16061
3 -5.42126 -15.2305 6.00021
3 -8.9843 -12.7034 5.95703
3 -12.5902 -15.1279 -0.18222
3 -9.0091 -17.7711 -0.0633633
3 -5.39102 -15.2267 0.277588
3 -8.98279 -12.7035 0.307779
3 -11.7745 -11.7897 -3.12061
3 -6.18673 -12.4694 -3.12536
3 -5.94869 -18.4368 3.13085
3 -12.0005 -17.9805 3.11036
1 -9.23517 -15.0965 9.29691