4151
 Atoms. Timestep: 110916
3 -23.2557 26.2931 -23.5923
3 -23.139 23.1756 -26.6088
4 -25.9086 25.4418 -20.6246
4 -25.9965 25.7153 -14.7571
4 -25.9281 20.2443 -20.2557
3 -26.5028 22.7333 -23.1998
3 -23.947 26.5001 -11.9251
3 -26.3494 22.8974 -17.5727
3 -23.5947 26.3962 -17.4765
3 -22.9713 23.3764 -14.3895
4 -28.393 22.682 -9.1154
4 -25.9774 25.6535 -3.09761
4 -25.9164 20.2833 -8.80958
3 -26.8026 22.7439 -12.4353
3 -23.3698 26.412 -0.10663
3 -27.0665 22.8215 -5.559
3 -23.6879 26.6518 -5.62385
3 -23.4818 23.1884 -2.95415
4 -26.3556 25.6099 2.61783
4 -20.3975 26.6642 6.60098
4 -25.6003 20.2359 2.83815
3 -26.3079 22.9845 -0.0959451
3 -23.0203 27.1291 12.7087
3 -26.8479 22.893 5.12177
3 -23.4987 26.9696 4.87651
3 -23.0921 24.0142 8.73814
4 -25.9355 26.2772 15.1706
4 -26.083 25.6385 20.4177
4 -25.9942 20.7183 14.4791
3 -26.6018 23.8057 12.0352
3 -22.9866 26.601 23.3565
3 -26.401 23.4248 17.6269
3 -23.3225 26.767 17.7736
3 -23.0933 23.5763 20.57
4 -25.8379 21.0252 25.4813
3 -26.4624 23.237 23.0068
4 -20.4369 26.0777 -20.5712
4 -20.8086 26.0968 -8.32285
4 -20.4349 26.1452 3.09258
4 -20.4778 25.9317 14.855
4 -20.4059 25.9429 25.7423
4 -25.302 14.938 -26.3555
4 -25.5244 20.695 -25.9969
3 -22.9886 14.6778 -23.6362
3 -26.4268 17.5827 -24.1245
3 -22.2252 12.2807 -26.9013
4 -25.5387 14.2607 -20.7168
4 -26.0527 14.6478 -14.9552
4 -25.4303 9.12708 -20.8287
4 -25.218 20.2881 -14.6114
3 -25.9592 12.2217 -23.6341
3 -23.8004 14.6236 -11.7349
3 -26.5342 17.8443 -11.6096
3 -26.1556 11.7939 -17.8743
3 -22.9782 14.4945 -17.7163
3 -26.0772 17.7091 -17.2336
3 -23.3811 17.4961 -20.5458
3 -23.7145 11.6618 -14.753
4 -26.3676 14.8893 -8.82598
4 -25.8035 14.6916 -2.40211
4 -25.8679 8.76655 -9.02194
4 -26.4181 20.2126 -2.7616
3 -26.6236 11.397 -11.7264
3 -22.9975 14.7207 -0.0428745
3 -26.2677 17.8933 0.110487
3 -27.0877 11.4439 -6.59464
3 -24.1086 14.4815 -5.8502
3 -26.7774 17.5364 -6.08963
3 -23.709 17.4068 -8.68648
3 -24.0494 11.7219 -2.87409
4 -25.4087 14.7799 2.91086
4 -25.984 14.6627 8.51409
4 -26.1409 8.899 2.79554
4 -26.7836 20.1215 8.42952
3 -26.3601 12.1548 0.404186
3 -23.1526 14.9141 11.3173
3 -26.9599 17.7167 11.6284
3 -26.6158 11.8865 5.53065
3 -23.3887 14.5817 5.8432
3 -26.602 17.6669 5.56782
3 -23.1164 17.567 2.88407
3 -23.7229 11.7171 8.80795
4 -25.5102 14.8826 14.4708
4 -26.5026 14.5639 20.0059
4 -25.6162 9.16549 14.744
4 -25.7183 20.8328 20.2588
3 -26.5965 12.0737 12.0583
3 -23.318 14.7283 23.2408
3 -26.3942 17.7898 23.6374
3 -26.4133 11.9089 17.1909
3 -23.3697 14.7997 17.858
3 -26.605 17.1615 17.159
3 -23.3265 17.7409 14.4669
3 -24.1469 11.8484 20.5122
4 -25.4333 14.7709 26.0274
4 -25.925 8.65317 25.8771
3 -26.4757 11.636 23.8548
3 -22.9087 17.6665 26.5391
4 -20.1578 20.4737 -25.7648
4 -20.6304 25.6669 -25.8926
3 -17.3018 20.6044 -23.2272
3 -20.5224 23.2499 -23.1205
3 -17.6655 17.7255 -26.4551
3 -23.0962 17.8761 -26.42
1 -20.346 20.4235 -20.2696
1 -20.4153 20.5664 -14.629
1 -20.168 14.6157 -20.7876
4 -20.6589 26.0611 -14.3752
2 -23.1948 17.5543 -23.4383
2 -23.5575 23.3519 -23.479
2 -23.223 17.5092 -17.6893
2 -23.3205 23.3952 -17.5551
3 -23.088 20.3849 -23.1641
3 -20.3242 17.7154 -23.2424
3 -17.8864 20.5371 -11.3892
3 -20.5975 23.6999 -11.0322
3 -22.8233 20.4128 -17.5205
3 -20.4176 17.4561 -17.9745
3 -17.6973 20.4814 -17.5442
3 -20.4612 24.0356 -17.3406
3 -23.148 23.1509 -20.3508
3 -17.7529 23.3645 -20.2892
3 -17.9318 17.4975 -14.5324
3 -22.9265 17.4352 -14.6504
1 -20.6303 20.0597 -8.61772
1 -20.6839 20.4317 -3.00569
1 -20.3992 14.207 -8.97444
4 -20.7417 25.6619 -2.75078
2 -23.5208 17.7462 -11.6817
2 -23.5759 23.5812 -11.4257
2 -23.8422 17.4504 -5.83318
2 -24.0584 23.4824 -5.99475
3 -23.1414 20.6207 -11.3259
3 -20.6049 17.5284 -11.2774
3 -17.47 20.4804 -0.0330735
3 -20.553 23.2959 0.0440809
3 -23.7205 20.2785 -6.01948
3 -20.6879 17.4176 -5.95001
3 -18.0496 20.7401 -5.85562
3 -21.0171 23.1838 -5.94615
3 -24.775 23.7762 -8.75425
3 -17.6059 23.806 -8.57217
3 -18.0704 17.3799 -2.93053
3 -23.3746 17.6893 -3.02508
1 -20.6194 20.6387 2.66275
1 -20.769 20.8855 8.77115
1 -20.4023 14.7719 3.00549
4 -20.7845 26.4517 9.89817
2 -23.2158 17.6625 -0.133695
2 -23.478 23.5302 -0.0344869
2 -23.5871 17.645 5.81607
2 -23.7924 23.5926 5.90557
3 -23.334 20.5161 -0.235744
3 -20.3961 17.7835 0.0446805
3 -17.5712 20.5515 11.4683
3 -20.66 23.1825 11.6676
3 -23.5146 20.5283 5.85375
3 -20.5298 17.5896 5.78185
3 -17.4709 20.5509 6.34494
3 -20.5519 23.2696 5.61149
3 -23.2663 23.5048 2.95055
3 -17.9094 23.1195 3.03413
3 -17.6995 17.4986 8.85186
3 -23.4516 17.5232 8.62019
1 -20.3951 20.5648 15.0023
1 -20.5839 20.3971 20.4674
1 -20.5672 15.0159 14.4027
4 -20.3486 26.0956 20.3531
2 -23.7411 17.8102 11.4754
2 -23.6365 23.7854 11.6565
2 -23.6457 17.7809 17.3003
2 -23.2991 23.4667 17.6879
3 -23.8703 20.7683 11.2736
3 -20.6956 17.9633 11.8985
3 -17.2967 20.8232 23.3574
3 -20.2857 23.3921 23.2123
3 -23.4378 20.5889 17.6414
3 -20.6494 17.8848 17.3001
3 -16.8819 20.5944 17.6635
3 -20.442 23.212 17.6587
3 -23.2321 23.3957 14.6393
3 -17.9784 23.0617 14.3667
3 -17.6004 18.0243 20.4556
3 -23.316 17.8626 20.4558
4 -20.2541 20.4535 25.7856
4 -19.8783 14.7369 25.6283
2 -23.3691 17.7104 23.5037
2 -23.2187 23.7244 23.4775
3 -23.1115 20.7694 23.2299
3 -20.3952 17.7551 23.2077
3 -23.0172 23.0848 26.2536
3 -17.34 24.1112 26.6723
4 -14.6276 25.9326 -25.8508
3 -11.7804 26.9477 -23.8782
3 -11.6323 23.6868 -26.2493
3 -17.6409 23.3933 -26.5678
4 -14.7346 25.6113 -20.0166
4 -14.7559 25.4745 -14.5869
1 -14.7245 20.52 -20.3398
2 -17.6163 23.5606 -23.4973
2 -17.587 23.4721 -17.3286
3 -18.0155 26.4824 -23.6465
3 -14.815 23.6638 -23.0709
3 -11.9025 26.6266 -12.5539
3 -17.1214 26.3076 -17.1716
3 -14.6605 22.9151 -17.4571
3 -12.0329 26.3821 -17.6795
3 -11.5663 22.8709 -14.5814
3 -17.7341 23.1234 -14.4132
4 -14.8785 26.1441 -9.18672
4 -14.7518 26.0839 -2.45229
1 -14.8494 20.9469 -8.6178
2 -17.7314 23.446 -11.5209
2 -17.8565 23.6852 -5.71057
3 -17.7105 26.5101 -11.654
3 -14.6208 23.2659 -11.7412
3 -11.6322 26.5153 -0.0838623
3 -18.2904 26.6769 -5.51067
3 -14.912 23.543 -5.62501
3 -11.4695 26.9523 -5.63298
3 -11.6865 23.4799 -2.78645
3 -17.3904 23.6058 -2.63379
4 -14.2561 25.8668 2.75888
4 -14.6935 26.3069 8.11284
1 -14.674 20.3564 3.21036
2 -17.5711 23.4863 0.129436
2 -17.522 23.3438 5.85964
3 -17.2667 26.4777 0.593919
3 -14.612 23.4356 0.157723
3 -11.7932 26.4142 11.7139
3 -17.1266 26.4184 5.28976
3 -14.5398 23.7783 5.76014
3 -11.844 26.4013 5.46821
3 -12.0302 23.3673 8.67081
3 -18.0081 24.315 8.72064
4 -15.0102 25.5542 14.4915
4 -14.267 26.0517 20.4848
1 -14.5429 20.2744 14.9193
2 -17.6593 23.6174 11.6713
2 -17.6109 23.458 17.4494
3 -18.0254 26.4592 12.3379
3 -14.7887 23.2092 11.5453
3 -11.5711 27.0961 23.4652
3 -17.811 26.3623 17.3454
3 -14.9129 23.7202 17.5593
3 -11.7011 26.6406 17.3443
3 -11.7143 23.4579 20.334
3 -17.3527 23.8318 20.588
4 -14.6366 26.8556 25.3814
4 -14.2508 20.5172 25.6125
2 -17.5374 23.6509 23.4585
3 -17.5154 26.6144 23.3906
3 -14.4908 23.4981 23.3809
4 -8.75173 26.0868 -20.2391
4 -8.60739 26.1611 -7.86872
4 -8.51029 25.6666 2.91632
4 -8.8492 25.6412 14.2129
4 -8.4829 25.8986 25.6989
4 -25.4926 3.02136 -25.937
4 -22.1719 8.94232 -27.9577
3 -22.9153 2.95523 -23.3509
3 -26.2615 5.83962 -23.4807
3 -23.0707 -0.279752 -26.0443
4 -26.1003 3.51159 -20.2395
4 -26.1954 2.74704 -14.1333
4 -25.857 -3.19356 -19.775
4 -26.3506 8.85385 -14.7805
3 -26.4531 0.0946471 -23.7094
3 -23.4611 2.78175 -11.6829
3 -27.0249 6.10658 -11.5593
3 -26.6715 -0.362398 -17.0693
3 -23.8182 2.99841 -17.3278
3 -26.3705 6.50677 -18.0064
3 -22.9583 6.20915 -20.7349
3 -23.1742 -0.145808 -14.4139
4 -25.7118 2.77066 -8.58714
4 -25.9336 2.82047 -2.55765
4 -25.6319 -2.78634 -8.47922
4 -26.2574 8.82018 -3.18739
3 -26.5037 0.117068 -11.4733
3 -23.6571 2.94463 0.28405
3 -26.6085 5.6591 0.0583219
3 -26.4007 0.344843 -5.84285
3 -23.0116 3.05872 -6.08677
3 -26.5775 5.57214 -5.52706
3 -23.5595 5.64706 -8.88058
3 -23.2942 0.229952 -2.89628
4 -26.0837 3.09744 2.95177
4 -26.1122 3.04113 8.88755
4 -25.9812 -2.47404 3.05684
4 -25.7338 8.61534 9.44548
3 -26.2439 -0.167987 0.167426
3 -23.1064 2.86943 11.5321
3 -26.5083 6.05491 12.0645
3 -26.9254 0.0651764 5.97572
3 -23.6286 2.92248 6.00638
3 -26.601 5.3386 6.09633
3 -23.3773 6.05251 2.95725
3 -23.4519 0.0125121 8.9045
4 -25.6312 2.90184 14.7652
4 -25.3306 2.93249 20.7024
4 -25.5259 -3.27807 14.5772
4 -26.1462 8.60065 20.4038
3 -26.3802 0.0683632 12.1726
3 -22.6949 2.84647 23.278
3 -26.1557 6.0239 23.2712
3 -26.0808 -0.427711 17.5296
3 -23.3624 2.84628 17.465
3 -26.4926 5.36254 18.2597
3 -23.1856 5.70378 14.7004
3 -22.9521 0.15505 20.4076
4 -26.1815 3.43449 25.864
4 -26.8753 -2.6772 25.3209
3 -26.671 0.440733 23.3818
3 -23.4852 5.9654 26.7719
4 -19.5489 8.90587 -25.9137
4 -20.2438 15.3894 -26.0553
3 -17.1105 8.67287 -23.1834
3 -20.1404 11.9855 -23.4646
3 -17.7757 5.79518 -26.4739
3 -22.7518 5.44116 -26.7507
1 -20.0782 8.55119 -20.7603
1 -20.7175 8.83069 -14.7428
1 -19.9114 2.89894 -20.6842
1 -20.4397 14.6246 -14.9404
2 -23.2643 5.92671 -23.8465
2 -23.033 11.8602 -23.8712
2 -23.1951 5.84768 -17.8615
2 -23.1699 11.5397 -17.5065
3 -23.1461 8.89607 -24.4936
3 -20.5094 6.15268 -23.4993
3 -17.6842 8.70501 -12.4833
3 -20.6668 11.6534 -12.0552
3 -23.293 8.75889 -17.6774
3 -20.2396 5.549 -17.8868
3 -17.804 8.68869 -17.5887
3 -20.3292 11.6304 -17.1586
3 -22.5166 11.8002 -20.6947
3 -17.3423 11.6118 -20.5935
3 -17.6476 5.31246 -14.7589
3 -23.6283 5.89293 -14.9384
1 -20.8584 8.61183 -9.15141
1 -20.6885 8.68259 -3.37587
1 -20.3282 3.19527 -8.93374
1 -20.6106 14.4368 -3.39816
2 -23.6453 5.83615 -11.9956
2 -23.7564 11.6418 -11.8805
2 -23.6516 5.92159 -5.88215
2 -24.0552 11.6746 -5.88662
3 -23.3885 8.78679 -11.8735
3 -20.5029 5.71906 -11.8369
3 -17.8886 8.80941 -0.454221
3 -20.3193 11.7191 -0.791901
3 -23.5798 8.91496 -5.81969
3 -20.6214 5.98437 -6.05237
3 -17.758 8.85028 -5.69571
3 -20.8596 11.9343 -5.93389
3 -23.2015 11.5772 -9.0264
3 -18.1528 11.2476 -8.97248
3 -17.4809 5.75674 -3.11891
3 -23.2568 6.15575 -2.8342
1 -20.5585 8.66411 3.23041
1 -20.5595 8.35877 8.76992
1 -20.8494 2.87409 3.07669
1 -20.6748 14.7115 8.53551
2 -23.4247 5.7624 0.099304
2 -23.41 11.6585 0.0883631
2 -23.5256 5.78071 5.91799
2 -23.6453 11.6192 5.97563
3 -23.5183 8.73419 0.147144
3 -20.5767 5.71884 -0.108057
3 -17.9552 8.8555 11.6403
3 -20.4149 11.8329 10.6743
3 -23.6486 8.76677 6.06446
3 -20.5153 5.93918 5.61774
3 -17.5387 8.62536 6.18124
3 -20.6539 11.6229 6.15853
3 -23.0048 11.8055 3.0665
3 -18.2366 11.5337 3.03574
3 -17.6323 5.73577 8.74117
3 -23.1702 5.72947 8.96155
1 -20.6454 8.59242 14.6896
1 -20.2112 8.76495 20.9624
1 -20.4705 3.03146 14.4041
1 -20.8625 14.9361 20.499
2 -23.3674 5.88772 11.8271
2 -23.2809 12.1172 11.5281
2 -23.4235 5.65086 17.7289
2 -23.5385 11.9005 17.6084
3 -23.1103 8.95891 11.9876
3 -20.3839 6.17128 11.7353
3 -17.5 8.95607 23.3564
3 -20.3875 11.8178 22.9473
3 -23.7798 8.57482 17.6046
3 -20.394 5.64813 17.4512
3 -17.5913 8.81927 17.5319
3 -20.6038 11.7314 18.3645
3 -22.551 12.1109 14.8117
3 -18.3124 11.814 14.7389
3 -17.5229 5.95975 20.4541
3 -23.0601 5.70651 20.6647
4 -20.4107 9.36393 25.7203
4 -20.3374 3.04595 26.1997
2 -23.3006 6.03775 23.6409
2 -23.5136 11.8549 23.3151
3 -23.2094 8.96656 23.0795
3 -20.4818 6.2721 24.11
3 -23.086 11.7563 26.2487
3 -17.4389 12.1706 26.3144
4 -14.4006 14.5763 -26.0079
4 -14.515 20.9149 -25.7496
3 -11.9018 14.7345 -23.2742
3 -14.54 17.8207 -23.9513
3 -11.4809 11.9022 -26.4225
3 -16.8593 11.6064 -26.6936
1 -14.904 14.2248 -20.6409
1 -14.7963 14.7011 -14.532
1 -14.237 8.77809 -20.4977
1 -14.5941 20.8183 -14.6426
2 -17.2978 11.6023 -23.7724
2 -17.3752 17.5371 -23.393
2 -17.5204 11.6594 -17.6387
2 -17.5838 17.6185 -17.3657
3 -17.0234 14.6431 -23.4048
3 -14.3442 11.5501 -23.7404
3 -11.6107 14.7916 -12.5305
3 -14.6473 17.6836 -11.9089
3 -17.5733 14.7214 -18.0168
3 -14.6524 11.2014 -17.5768
3 -12.1134 14.6296 -17.4901
3 -14.5916 18.1657 -16.9779
3 -17.426 17.5689 -20.5123
3 -12.044 17.5149 -20.3498
3 -11.7135 11.0067 -14.6806
3 -17.3773 11.9945 -14.6673
1 -14.781 14.6657 -8.55757
1 -14.4171 15.1441 -2.82498
1 -15.1433 8.77529 -9.30738
1 -14.516 20.9687 -3.03207
2 -17.6128 11.5875 -11.9031
2 -17.5638 17.5607 -11.4661
2 -17.9131 11.7091 -6.01747
2 -17.787 17.7286 -5.76559
3 -17.3215 14.6202 -11.3702
3 -14.6589 11.4757 -11.739
3 -11.7115 14.8636 -0.367766
3 -14.5388 17.8507 -0.474941
3 -17.7028 14.6916 -6.24311
3 -14.8837 11.6085 -6.43925
3 -12.1853 14.6919 -5.63968
3 -14.8351 17.9931 -5.36302
3 -16.8569 17.7069 -8.45787
3 -11.9602 17.3639 -9.02987
3 -12.0596 11.8017 -3.04115
3 -17.2576 12.1404 -2.98392
1 -14.7053 15.007 3.35913
1 -14.917 14.9557 8.82416
1 -14.7087 8.38244 2.94107
1 -14.8418 20.3235 9.06782
2 -17.5718 11.699 0.129849
2 -17.384 17.643 0.138125
2 -17.7401 11.594 6.0002
2 -17.7542 17.5123 5.85341
3 -17.6003 14.5753 0.348749
3 -14.6762 11.7918 0.843313
3 -11.8513 14.8997 11.9953
3 -14.7695 17.7926 11.7036
3 -17.6415 14.554 6.12074
3 -14.8062 11.6803 5.52582
3 -12.1686 14.8084 6.0096
3 -14.7032 17.8543 5.98887
3 -17.2005 17.7654 3.16071
3 -12.1557 17.5997 2.86071
3 -11.8573 11.6239 8.88005
3 -16.8865 11.7096 8.89078
1 -14.8926 14.8445 14.4095
1 -14.4351 14.5912 20.2546
1 -14.8547 8.81931 14.4732
1 -14.3558 20.4118 20.5434
2 -17.6102 11.8125 11.8383
2 -17.8756 17.6831 11.7128
2 -17.645 11.736 17.6963
2 -17.6798 17.5694 17.5376
3 -17.8748 14.6658 11.512
3 -14.8455 11.8168 12.199
3 -11.5868 14.7539 23.6688
3 -14.5023 17.6473 23.2013
3 -17.9524 14.597 17.4443
3 -14.8338 11.9884 17.0719
3 -11.3753 14.7291 17.8719
3 -14.6242 17.2913 17.2957
3 -17.6329 17.55 14.5761
3 -11.3822 17.7717 14.6183
3 -12.1171 11.584 20.5566
3 -16.5482 11.8979 20.628
4 -14.8198 15.0806 25.6629
4 -14.4052 8.69853 25.4833
2 -17.397 12.088 23.3645
2 -17.5355 17.8224 23.4775
3 -17.3327 14.9272 22.6948
3 -14.3972 11.8161 23.8103
3 -17.6094 17.7882 26.3146
3 -11.3561 18.0307 26.5151
4 -8.8152 20.5431 -25.5622
4 -8.53208 26.1426 -25.852
3 -6.00365 20.6009 -23.1327
3 -8.79897 23.6166 -23.2053
3 -5.39006 17.6873 -26.2626
3 -11.3642 18.0943 -26.1805
1 -8.63741 20.7945 -20.6355
1 -8.40363 20.3619 -14.689
1 -8.60382 14.5615 -20.3122
4 -8.53621 25.7118 -14.2029
2 -11.7097 17.6006 -23.2785
2 -11.8197 23.876 -23.2576
2 -11.7673 17.5318 -17.484
2 -11.8299 23.41 -17.4166
3 -11.8012 20.624 -23.1921
3 -8.79094 17.5642 -22.9309
3 -6.51157 20.6764 -11.5904
3 -8.74519 24.0028 -10.976
3 -11.592 20.4797 -17.9244
3 -8.84056 17.3993 -17.6389
3 -5.90569 20.5924 -17.7825
3 -8.77959 23.5349 -17.4293
3 -11.6839 23.547 -20.4536
3 -5.74546 23.3362 -20.3456
3 -6.06725 17.7274 -14.4745
3 -11.4206 18.2101 -14.7123
1 -8.86555 21.0673 -8.6
1 -8.78087 21.0671 -2.69178
1 -8.77312 14.7509 -9.07927
4 -8.84384 26.4465 -2.62738
2 -11.6572 17.8356 -11.8886
2 -11.6796 23.6667 -11.6344
2 -11.8022 17.7607 -6.07853
2 -11.8827 23.8941 -5.6992
3 -11.8094 20.6506 -10.9766
3 -8.70202 17.4745 -11.5068
3 -5.9487 20.6821 -0.0100002
3 -8.75624 23.7814 -0.160118
3 -11.7004 20.722 -6.10891
3 -9.04854 17.4194 -6.29851
3 -6.03885 20.6617 -5.88418
3 -8.78057 23.5667 -5.23333
3 -11.9973 24.002 -8.50164
3 -5.43136 23.7063 -8.38669
3 -6.44342 17.9793 -2.954
3 -11.1591 17.9335 -2.9684
1 -8.96743 20.4576 3.07973
1 -8.8152 20.5851 8.71958
1 -8.25348 14.5929 2.75452
4 -8.68944 25.8302 9.06914
2 -11.64 17.7395 0.100578
2 -11.6528 23.4946 0.0520498
2 -11.6535 17.6777 5.77606
2 -11.7551 23.6758 5.85405
3 -11.4347 20.603 0.409898
3 -8.83169 17.3657 0.255459
3 -6.09255 20.6204 11.6763
3 -8.9442 23.1152 11.4848
3 -11.4798 20.676 5.88166
3 -8.81783 17.6769 5.3716
3 -6.26208 20.6464 5.86799
3 -8.77705 23.6407 6.23427
3 -11.4681 23.4254 2.89429
3 -5.80535 23.411 3.23303
3 -6.38076 17.4696 8.7001
3 -11.8084 17.5181 8.83227
1 -9.16186 20.6811 14.282
1 -8.87566 20.3766 20.3235
1 -9.0186 14.722 14.6024
4 -8.73444 25.7711 20.1563
2 -11.8644 17.847 11.7363
2 -11.9096 23.5028 11.6315
2 -11.7021 17.7068 17.4742
2 -11.908 23.6945 17.4836
3 -12.0179 20.714 11.6101
3 -8.93171 17.8614 11.614
3 -6.11977 20.3302 23.0946
3 -8.82899 23.3039 23.1198
3 -11.7757 20.6303 17.5425
3 -8.79763 17.8042 17.6538
3 -5.55258 20.6344 17.5317
3 -8.86702 23.317 17.6014
3 -11.9948 23.1538 14.6566
3 -6.26267 23.4043 14.5976
3 -6.11852 16.9865 20.3786
3 -11.6166 17.628 20.387
4 -8.83851 20.3498 25.6946
4 -8.286 14.6466 26.1618
2 -11.568 17.6124 23.563
2 -11.6248 23.5716 23.5903
3 -11.5017 20.6757 23.1154
3 -8.86717 17.2775 23.1521
3 -11.6259 23.5322 26.4445
3 -6.21963 23.4063 26.1263
4 -2.85508 26.1053 -25.7241
3 0.00105305 26.2395 -23.1885
3 0.213525 23.3955 -26.3736
3 -5.9915 23.8042 -26.2806
4 -3.00047 25.8776 -19.9593
4 -3.01647 25.677 -14.3983
1 -2.78603 20.3513 -20.3973
2 -5.79144 23.6202 -23.3181
2 -5.77938 23.5435 -17.456
3 -5.43337 26.457 -23.0723
3 -2.96865 23.2666 -23.0511
3 -0.12659 26.6983 -11.4068
3 -5.92984 26.553 -17.8428
3 -2.75504 23.1653 -17.3884
3 -0.564695 26.6574 -17.1093
3 -0.0837972 23.2487 -14.5044
3 -5.88705 23.1053 -14.3992
4 -2.74839 25.9746 -8.84888
4 -3.01404 26.1617 -2.55899
1 -2.7261 20.4061 -8.77779
2 -5.73533 23.6604 -11.5207
2 -5.85545 23.8167 -5.51254
3 -5.22881 26.6374 -11.9652
3 -2.95438 23.0448 -11.2781
3 -0.223585 26.7313 0.0344459
3 -6.31874 26.7365 -4.93193
3 -2.81415 23.7202 -5.64663
3 0.459419 26.4101 -6.04428
3 0.118632 23.2249 -2.85409
3 -5.8015 23.5293 -2.76093
4 -3.24281 25.9618 2.98148
4 -2.77848 25.8332 8.6157
1 -3.02494 20.6855 3.12937
2 -5.64353 23.5506 0.104507
2 -5.8134 23.5899 5.99233
3 -5.63131 26.6311 0.247602
3 -2.77678 23.482 0.137915
3 0.231375 26.4537 11.6555
3 -5.57979 26.4248 6.13573
3 -2.89394 23.0733 6.03157
3 -0.107657 26.4942 6.0689
3 -0.22546 23.2328 8.81044
3 -5.66723 23.3162 8.7842
4 -3.61566 26.1667 14.4853
4 -2.96183 25.7346 20.5199
1 -3.26968 20.4055 14.1258
2 -6.03848 23.6567 11.7125
2 -6.03642 23.8394 17.4475
3 -5.81575 26.7532 11.6193
3 -3.13869 23.6532 11.8429
3 0.0798667 26.1214 22.7563
3 -6.1777 26.745 17.1206
3 -3.15374 23.8574 17.3797
3 0.294898 26.1159 18.1583
3 -0.333108 22.8192 20.5543
3 -5.74546 23.3842 20.3754
4 -2.84441 26.2518 25.4142
4 -3.04583 20.3095 25.5731
2 -5.99227 23.3852 23.3464
3 -5.82426 26.5087 23.2642
3 -3.10694 23.3403 23.3886
4 3.42805 25.8118 -20.476
4 3.11686 25.729 -8.55938
4 2.87349 26.1776 3.17828
4 2.70228 25.3658 14.727
4 2.74867 27.8567 20.4414
4 -26.064 -9.09054 -25.4894
4 -25.6059 -2.96068 -25.6188
3 -23.3741 -8.73696 -22.9108
3 -26.4763 -5.93107 -23.5437
3 -23.4424 -11.3447 -25.8503
4 -25.6871 -8.81934 -19.6952
4 -25.9594 -8.35339 -14.1903
4 -25.5514 -14.304 -20.2616
4 -25.7374 -2.7909 -14.5473
3 -26.4567 -12.0646 -23.2537
3 -22.8977 -8.46914 -11.5035
3 -26.4522 -5.66429 -11.4037
3 -26.3066 -12.0241 -17.493
3 -23.0665 -8.70396 -17.0641
3 -26.0992 -5.81423 -16.992
3 -23.2939 -5.95328 -20.2876
3 -23.1348 -11.6504 -14.4405
4 -25.5257 -8.55306 -8.82065
4 -25.7573 -8.44957 -2.97831
4 -25.9453 -14.4714 -8.88017
4 -25.623 -2.63584 -2.67667
3 -26.2132 -11.5713 -11.5945
3 -23.041 -8.66415 0.175959
3 -26.0767 -5.49175 -0.126026
3 -26.5015 -10.7636 -5.81608
3 -23.0167 -8.74596 -5.46111
3 -26.1146 -5.95346 -6.17467
3 -22.9078 -5.87613 -8.62047
3 -23.4634 -11.6606 -2.72034
4 -25.6361 -8.68085 2.6115
4 -26.0003 -8.51753 8.90144
4 -25.4896 -14.8534 2.95341
4 -25.7184 -3.08102 8.80346
3 -26.5436 -11.2426 0.145017
3 -23.541 -8.68057 11.781
3 -26.3493 -5.50786 11.6127
3 -26.1985 -12.431 5.62966
3 -23.7439 -8.8247 6.04589
3 -26.6209 -5.83168 6.20373
3 -23.2457 -5.6989 3.05731
3 -23.1025 -11.5275 8.86467
4 -26.1446 -9.22023 14.4877
4 -25.8812 -8.37663 20.4337
4 -25.5483 -14.6065 14.323
4 -25.5262 -2.92234 20.0724
3 -26.3553 -11.928 11.8534
3 -23.5274 -8.70898 23.4164
3 -27.0707 -5.52926 22.839
3 -26.6052 -11.7036 17.5711
3 -23.6967 -8.77124 17.2903
3 -26.1724 -5.45652 17.4673
3 -22.8974 -5.79359 14.7509
3 -23.3104 -11.562 20.4324
4 -25.9608 -8.64215 25.8882
4 -25.6727 -14.8945 25.9075
3 -26.7116 -12.2981 23.7729
3 -24.2669 -5.3504 26.281
4 -20.1797 -3.18324 -25.3936
4 -20.3386 2.51169 -25.9079
3 -17.361 -2.95886 -23.1605
3 -20.4027 -0.138752 -22.8441
3 -17.5732 -5.86534 -26.3368
3 -23.3497 -5.60431 -26.4439
1 -20.3421 -3.11702 -20.3402
1 -20.4699 -2.9419 -14.4339
1 -20.1717 -8.79886 -20.6682
1 -20.4442 2.78761 -14.2043
2 -23.3891 -5.91475 -23.3149
2 -23.4676 -0.0747969 -22.954
2 -23.176 -5.80486 -17.4009
2 -23.499 -0.0421734 -17.3499
3 -23.1852 -2.97123 -22.906
3 -20.3719 -5.95465 -23.1501
3 -17.3851 -2.89403 -12.2095
3 -20.4036 5.18281e-05 -11.3605
3 -22.9018 -2.89595 -17.266
3 -20.375 -5.89669 -17.5398
3 -17.9088 -2.90891 -17.1435
3 -20.4157 0.535125 -17.7284
3 -23.8753 0.148321 -20.1775
3 -17.4076 -0.215225 -20.395
3 -17.5858 -6.41321 -14.7023
3 -23.0875 -5.59646 -14.4271
1 -20.423 -2.75962 -8.56815
1 -20.438 -2.80947 -2.75992
1 -20.3271 -8.87938 -8.75388
1 -20.3583 3.37508 -3.18492
2 -23.1875 -5.73615 -11.505
2 -23.4151 -0.0577527 -11.4118
2 -23.1641 -5.80746 -5.67776
2 -23.3257 0.0749846 -5.78077
3 -23.2585 -2.89831 -11.4522
3 -20.2299 -5.66533 -11.5866
3 -17.2124 -2.84946 -0.499104
3 -20.3729 0.427983 0.218608
3 -23.1382 -2.95474 -5.84454
3 -20.1564 -5.75582 -5.77255
3 -17.261 -2.78518 -4.89794
3 -20.28 -0.322112 -5.75912
3 -23.2579 0.152892 -8.60557
3 -17.2977 -0.411694 -8.74293
3 -17.2392 -6.2065 -2.75709
3 -23.0416 -5.64665 -2.83179
1 -20.5211 -3.08008 3.2894
1 -20.761 -2.73709 9.08658
1 -20.1518 -8.55045 2.8736
1 -20.6993 3.09329 8.66355
2 -23.2798 -5.64689 0.21781
2 -23.221 0.163218 0.0874523
2 -23.5548 -5.89104 6.0116
2 -23.9086 -0.0638208 5.85303
3 -22.6232 -2.74671 0.328568
3 -20.0931 -5.69992 0.314713
3 -17.8441 -2.70799 11.3704
3 -20.6743 0.202208 11.4835
3 -23.3367 -3.07051 5.88615
3 -20.5419 -6.20023 5.85225
3 -18.2969 -2.97037 6.25746
3 -20.7313 -0.00644997 5.99396
3 -23.2326 -0.0518496 3.0254
3 -17.5531 -0.679084 3.0884
3 -17.5514 -6.05383 8.97545
3 -23.1944 -5.72324 8.96643
1 -20.1268 -3.00286 14.6752
1 -20.1129 -2.81058 20.6971
1 -20.2275 -8.70472 14.6698
1 -20.3937 2.91179 20.1454
2 -23.4132 -5.76006 11.8684
2 -23.5037 -0.00444754 11.9
2 -23.2363 -5.89821 17.6883
2 -23.1186 0.0065799 17.4473
3 -23.3898 -2.82057 11.7424
3 -20.4877 -5.85462 11.8648
3 -17.1577 -2.91457 22.8683
3 -20.6086 -0.578986 23.5491
3 -22.625 -2.94937 17.8589
3 -20.2817 -6.3634 17.7244
3 -17.3859 -2.97656 17.9113
3 -20.1349 0.358021 17.3014
3 -23.0999 -0.00426754 14.6202
3 -17.0611 -0.121006 14.5234
3 -17.4906 -5.90821 20.6731
3 -23.2574 -5.92855 20.5452
4 -19.9337 -3.03043 26.0392
4 -20.5438 -8.75087 25.6547
2 -23.5526 -5.83724 23.3997
2 -23.5448 0.0808253 23.4309
3 -23.6275 -2.811 23.3876
3 -20.5654 -5.69957 23.4491
3 -23.6736 0.602218 26.4532
3 -17.2813 -0.297813 26.403
4 -14.9451 2.64849 -26.2302
4 -14.0237 8.79914 -26.2771
3 -11.6341 2.86046 -23.6291
3 -14.6034 5.41932 -23.8982
3 -12.0087 -0.0869263 -26.4007
3 -17.5066 0.0595862 -26.297
1 -14.5988 2.71241 -21.1381
1 -14.5237 2.91819 -14.8624
1 -14.571 -2.96223 -20.459
1 -14.8312 8.6677 -14.8326
2 -17.4457 -0.196514 -23.3669
2 -17.5145 5.79813 -23.6067
2 -17.5227 0.170099 -17.5082
2 -17.4013 5.7156 -17.7374
3 -17.7273 2.84766 -23.5551
3 -14.5974 -0.0888245 -23.4158
3 -12.0132 2.9134 -12.0396
3 -14.7904 5.9644 -11.9289
3 -16.8464 2.88027 -18.0165
3 -14.6418 -0.419946 -16.9122
3 -12.2004 2.97205 -17.6196
3 -14.5652 6.35021 -17.6416
3 -17.1498 5.56444 -20.5951
3 -11.9089 5.77587 -20.7138
3 -11.5155 -0.19496 -14.5392
3 -18.0045 0.282266 -14.6618
1 -14.9058 3.00571 -8.74881
1 -14.752 2.93699 -2.89735
1 -14.2779 -3.02916 -8.82644
1 -14.7942 9.12517 -3.1824
2 -17.5235 -0.0639278 -11.6262
2 -17.6817 5.77468 -11.8679
2 -17.4206 -0.0620203 -5.79142
2 -17.6081 5.85558 -6.03252
3 -17.7314 2.7741 -11.2242
3 -14.4892 -0.0573415 -11.8347
3 -11.3326 2.95567 -0.243665
3 -14.5728 5.52112 -0.140338
3 -17.5379 2.92175 -6.2996
3 -14.4449 -0.0409793 -5.19
3 -11.8704 2.84526 -5.50909
3 -14.8012 5.94217 -6.35305
3 -17.5831 6.16377 -8.95912
3 -11.934 5.43578 -8.96436
3 -11.1151 -0.439211 -2.70123
3 -17.6808 0.750201 -2.98175
1 -14.5439 2.87382 2.82818
1 -14.7424 3.13717 8.76009
1 -14.3597 -2.98893 3.06005
1 -14.8528 8.68084 8.85471
2 -17.4706 0.101786 -0.128022
2 -17.4897 5.94899 -0.0206564
2 -17.7617 0.168898 5.9469
2 -17.5621 5.69586 5.72917
3 -17.5554 3.00263 0.259419
3 -14.5463 0.296542 0.135026
3 -12.1072 2.96138 11.2744
3 -14.6836 6.00362 11.6185
3 -17.2882 2.9279 5.25997
3 -14.7565 0.0108081 6.26904
3 -11.8088 3.08498 6.44335
3 -14.6526 5.88391 5.71851
3 -17.5954 6.13383 2.81782
3 -11.836 5.83706 2.93428
3 -11.2398 -0.259568 8.89545
3 -17.496 0.760689 8.79253
1 -14.498 2.71816 14.3657
1 -14.7139 2.9803 20.3607
1 -14.5142 -2.92904 14.8065
1 -14.4906 8.79448 20.2449
2 -17.5851 0.0847966 11.7017
2 -17.526 5.89692 11.5958
2 -17.3377 -0.0382969 17.4176
2 -17.4546 5.93275 17.3399
3 -17.4868 2.93468 11.8702
3 -14.5278 -0.490013 11.8579
3 -11.7781 3.20698 22.848
3 -14.5679 5.76861 22.8953
3 -17.2588 3.00641 17.5442
3 -14.4904 0.206171 17.7455
3 -11.2246 3.16069 18.0087
3 -14.5892 5.77323 17.6384
3 -17.4293 6.12985 14.489
3 -11.9389 5.40898 14.6564
3 -11.1827 0.0405646 20.4403
3 -17.6372 0.278294 20.4421
4 -14.454 2.98234 25.5197
4 -14.2466 -2.7124 25.5609
2 -17.5529 -0.0802966 23.5114
2 -17.6567 6.06049 23.2802
3 -17.9109 3.04102 23.3686
3 -14.6628 0.255361 23.0734
3 -17.3868 6.44556 26.2909
3 -11.9613 5.82662 25.8191
4 -8.973 9.04377 -25.5792
4 -8.59733 14.9331 -26.0241
3 -6.04907 8.89225 -23.2696
3 -8.80945 11.6523 -23.0971
3 -5.39993 5.92658 -26.3607
3 -11.4421 6.26042 -26.7529
1 -8.81658 8.46117 -20.7583
1 -8.87995 8.71689 -14.3586
1 -8.59829 3.13147 -20.5161
1 -8.41395 14.7997 -14.1858
2 -11.6111 5.85741 -23.7753
2 -11.5493 11.6104 -23.4498
2 -11.6121 6.0108 -17.7973
2 -11.6013 11.823 -17.5883
3 -11.7324 8.65339 -23.3083
3 -8.84013 5.96843 -23.3556
3 -6.17481 8.96143 -12.3767
3 -8.78783 11.8409 -11.9444
3 -11.0492 9.01263 -18.0664
3 -8.91159 5.21988 -17.5597
3 -6.45379 8.74272 -17.3726
3 -8.84534 12.4212 -17.1167
3 -11.7714 11.9752 -20.6239
3 -6.10299 11.844 -20.2281
3 -5.94409 5.35764 -14.6045
3 -11.8123 6.01951 -14.8492
1 -8.89966 9.10677 -8.84265
1 -9.36452 9.09069 -2.96589
1 -9.2889 2.86631 -8.40399
1 -9.08921 14.8894 -2.92502
2 -11.7273 5.93927 -11.9149
2 -11.7305 11.7429 -11.915
2 -11.935 5.84309 -6.01545
2 -11.9422 11.7444 -6.16855
3 -11.8785 8.78645 -11.1615
3 -8.91298 5.96194 -11.5479
3 -5.58885 8.81946 -0.0590974
3 -8.97502 11.5414 -0.405035
3 -12.1053 8.7198 -6.43535
3 -8.96284 6.20559 -5.73322
3 -6.32131 8.67552 -5.48882
3 -9.11574 11.8114 -5.78469
3 -11.7473 12.5469 -9.07161
3 -6.14107 11.5319 -8.91176
3 -5.52936 5.83354 -3.08235
3 -11.8055 6.42035 -3.08122
1 -8.62859 8.63694 2.74267
1 -9.01468 8.77104 9.22077
1 -8.45928 2.76404 2.86669
1 -9.36664 14.6616 8.79862
2 -11.6744 5.9665 -0.174621
2 -11.9389 11.9768 -0.0091052
2 -11.6712 5.93987 5.96832
2 -11.979 11.9195 5.9049
3 -12.1385 8.88349 0.182873
3 -8.77329 6.13658 -0.373299
3 -6.45914 9.0025 11.6194
3 -9.14953 12.004 11.4997
3 -11.3624 8.88137 5.74251
3 -8.90995 5.37672 5.96594
3 -6.32883 8.79652 5.99382
3 -8.9809 12.3584 5.98094
3 -11.1931 12.2187 2.62177
3 -6.4693 11.443 2.90121
3 -5.89001 5.97245 8.82433
3 -11.8869 6.45566 8.89922
1 -9.211 9.29832 14.6192
1 -8.41808 9.02254 20.7322
1 -8.42311 3.47438 14.9112
1 -8.73947 14.7632 20.4418
2 -11.7876 5.89161 11.7898
2 -11.9967 11.905 11.8073
2 -11.686 5.88747 17.5113
2 -11.8023 11.7597 17.7258
3 -11.5504 8.89145 11.9831
3 -8.71662 5.61304 11.8836
3 -5.79879 8.91293 23.2659
3 -8.61723 12.0711 23.1872
3 -11.9978 9.04799 16.8102
3 -8.71682 6.52012 17.1848
3 -5.51592 9.06546 17.8902
3 -8.89129 11.7285 17.6366
3 -11.9382 12.3869 14.8156
3 -6.15419 11.3501 14.5081
3 -5.91347 6.25528 20.5634
3 -10.9733 6.43877 20.2233
4 -8.56429 8.96032 25.7606
4 -8.77203 3.43985 25.8895
2 -11.4832 5.99825 23.0465
2 -11.5542 11.8547 23.4382
3 -11.2368 8.92914 23.2729
3 -8.58065 5.86081 23.2986
3 -11.1219 11.8374 26.5901
3 -5.88681 11.7913 26.489
4 -3.14375 14.546 -25.7465
4 -2.81448 20.5197 -25.8088
3 -0.262963 14.4843 -23.6169
3 -2.99571 17.6592 -23.3927
3 -0.0037843 11.3743 -26.4241
3 -6.38191 12.058 -26.3703
1 -3.15641 14.6164 -20.8173
1 -3.20524 15.0273 -14.5354
1 -3.11916 8.66942 -20.5154
1 -2.58525 20.5327 -14.8779
2 -6.10269 11.8179 -23.1546
2 -5.80608 17.6899 -23.3093
2 -5.87093 11.6065 -17.3674
2 -5.89978 17.6885 -17.4299
3 -5.88942 14.7275 -23.1848
3 -3.1926 11.3968 -23.4474
3 -0.656402 14.6322 -11.8054
3 -2.75788 18.36 -12.2424
3 -5.35038 14.7316 -17.6883
3 -3.14368 11.0632 -17.8153
3 -0.436005 14.6477 -17.5122
3 -2.97305 17.8504 -17.4437
3 -5.53023 17.6568 -20.2913
3 -0.384421 17.2198 -20.5138
3 -0.349405 11.6455 -14.6866
3 -5.54532 12.1464 -14.5383
1 -3.18303 14.341 -8.54053
1 -3.22927 14.62 -2.76277
1 -2.90433 9.13883 -8.39897
1 -3.19336 20.6124 -3.39009
2 -5.9077 11.8012 -11.5795
2 -5.75334 17.712 -11.6066
2 -6.17058 11.6336 -5.79282
2 -6.1942 17.708 -5.90422
3 -5.47172 14.7735 -11.6058
3 -2.9594 11.3009 -11.3012
3 -0.222109 14.8109 -0.464665
3 -2.95454 18.1485 -0.687187
3 -6.10168 14.671 -5.66772
3 -3.12618 11.8052 -5.85937
3 0.0607965 14.5425 -5.86556
3 -3.04062 17.424 -5.40115
3 -5.62203 17.3449 -8.64211
3 -0.69478 17.431 -8.73526
3 -0.597941 11.6103 -2.98307
3 -6.08345 11.9503 -2.82169
1 -3.10559 14.3629 2.98915
1 -3.19989 14.8596 8.83898
1 -3.38761 8.8375 2.73787
1 -2.65751 20.6109 8.71746
2 -6.16878 11.8659 0.0695652
2 -5.886 17.7701 -0.16403
2 -6.06729 11.8082 5.79313
2 -5.91012 17.6005 5.73941
3 -5.78387 14.6344 0.115659
3 -3.243 11.7764 0.346308
3 -0.689844 14.7046 11.1086
3 -3.20023 17.7951 11.6425
3 -5.66062 14.673 5.50207
3 -3.01262 11.4467 5.68003
3 -0.269034 14.7328 6.14586
3 -3.05719 18.0383 6.28358
3 -5.52439 17.8276 2.68232
3 -0.830469 17.3744 2.7789
3 -0.21614 11.3378 8.57133
3 -5.79528 12.2554 8.67433
1 -2.99903 14.747 14.3161
1 -2.91598 14.2672 20.2196
1 -3.15357 9.1181 14.7249
1 -2.9928 20.3954 20.2819
2 -5.99309 11.8068 11.5074
2 -6.03194 17.6828 11.6168
2 -5.90892 11.9581 17.4056
2 -5.83999 17.6249 17.4647
3 -5.89959 14.7357 11.7268
3 -2.89641 11.8345 11.5697
3 -0.0272714 14.6872 22.8768
3 -3.01293 17.6373 22.9395
3 -5.98089 14.8806 16.829
3 -2.98642 12.2126 17.0622
3 0.485529 14.8925 17.7355
3 -2.90758 17.0171 17.6685
3 -6.21195 17.8796 14.5345
3 0.301825 17.4074 14.5864
3 0.172773 11.759 20.2873
3 -5.78569 12.0047 20.3634
4 -2.79152 14.5752 25.3698