4151
 Atoms. Timestep: 916
3 -22.8194 26.281 -22.9533
3 -22.8962 22.9917 -26.3168
4 -25.4464 25.7106 -20.3511
4 -25.2566 25.8121 -14.5784
4 -25.6268 20.1563 -20.5081
3 -26.2172 22.9958 -22.9973
3 -22.8734 26.212 -11.691
3 -26.2236 23.5471 -17.424
3 -22.9221 26.1499 -17.4681
3 -23.1027 22.8813 -14.5455
4 -25.2638 26.053 -8.71683
4 -25.5772 25.9298 -2.93351
4 -25.829 20.5102 -8.33166
3 -26.2914 23.9296 -11.5433
3 -23.1108 26.4342 -0.0947997
3 -26.2373 23.5995 -5.87054
3 -23.0958 26.451 -5.73343
3 -23.1515 23.2731 -2.92793
4 -25.3428 26.0855 2.84558
4 -25.206 26.0012 8.75973
4 -25.9454 20.4721 2.40707
3 -26.289 23.6248 -0.0101519
3 -22.9035 26.1987 11.6961
3 -26.4098 24.1208 5.77154
3 -22.9382 26.2427 5.80229
3 -23.2878 22.9011 8.72432
4 -25.3016 25.9683 14.6501
4 -25.4523 25.6457 20.4511
4 -25.8542 20.3273 14.9903
3 -26.3671 24.0197 11.7097
3 -22.7332 26.1813 23.0168
3 -26.2019 23.4626 17.4382
3 -23.0076 26.2597 17.5521
3 -22.9985 23.0193 20.3772
4 -25.4357 20.2212 25.6219
3 -26.0626 22.8807 23.0319
4 -20.2688 25.4676 -20.2035
4 -20.2712 25.5867 -8.84602
4 -20.4056 25.5494 2.99177
4 -20.3313 25.4437 14.4646
4 -20.0868 25.4629 25.6562
4 -25.6383 14.6182 -25.7052
4 -25.6007 20.3993 -25.702
3 -23.041 14.6074 -23.2092
3 -26.2143 17.4884 -23.313
3 -23.2297 11.7793 -26.3739
4 -25.3837 14.5608 -20.2513
4 -25.3425 14.513 -14.7497
4 -25.5822 9.01077 -20.4539
4 -25.7776 19.7743 -14.7038
3 -26.1823 11.7049 -23.3158
3 -22.8545 14.6405 -11.7329
3 -26.2864 16.9664 -12.0938
3 -26.0755 11.96 -17.6816
3 -22.6466 14.5414 -17.5248
3 -26.0804 17.1222 -17.511
3 -23.0437 17.4339 -20.4278
3 -23.0647 11.6269 -14.6142
4 -25.6273 14.4222 -9.12623
4 -25.7562 15.0175 -2.95008
4 -25.6316 8.96544 -8.88382
4 -25.6497 20.4624 -2.9699
3 -26.1404 11.7298 -11.7977
3 -23.2513 14.7106 -0.0817274
3 -26.4119 17.8381 -0.365303
3 -26.4045 11.8377 -6.50464
3 -23.2756 14.6885 -5.83481
3 -26.393 17.8657 -5.56299
3 -23.5812 17.4885 -8.75977
3 -23.8952 11.7889 -2.96598
4 -25.642 14.4948 3.13478
4 -25.5288 14.5198 8.73025
4 -25.7049 9.07677 2.98183
4 -26.0783 19.6312 8.75554
3 -26.4169 11.9262 0.523925
3 -22.8782 14.6395 11.5629
3 -26.3517 16.9562 11.491
3 -26.2136 11.8347 5.78541
3 -22.9372 14.6901 5.83522
3 -26.4136 16.9635 6.04553
3 -23.587 17.5656 2.84856
3 -23.2453 11.6691 8.67242
4 -25.5222 14.4678 14.3497
4 -25.5716 14.7011 20.1438
4 -25.6671 9.06673 14.3811
4 -25.4605 20.1372 20.4736
3 -26.1796 11.8551 11.6989
3 -23.0667 14.4292 22.9835
3 -26.1171 17.3589 23.1354
3 -26.2621 11.9455 17.0866
3 -23.0035 14.5852 17.4089
3 -26.2565 17.5847 17.7452
3 -23.3993 17.4961 14.5598
3 -23.5201 11.6008 20.2542
4 -25.6491 14.3583 25.5074
4 -25.4852 8.54783 25.6168
3 -26.2857 11.3911 23.3398
3 -23.3478 17.1608 26.2915
4 -20.2241 20.2999 -25.7147
4 -20.2749 25.6536 -25.6726
3 -17.4109 20.3656 -23.2787
3 -20.3115 23.0989 -23.1371
3 -17.4679 17.4746 -26.3553
3 -23.2144 17.4747 -26.3439
1 -20.2385 20.3388 -20.5036
1 -20.1061 20.3034 -14.5436
1 -20.279 14.6039 -20.59
4 -20.2991 25.416 -14.575
2 -23.2383 17.4929 -23.3574
2 -23.2712 23.3408 -23.3479
2 -23.0944 17.4234 -17.491
2 -23.2504 23.1698 -17.4552
3 -23.028 20.3675 -23.1988
3 -20.3183 17.4673 -23.2695
3 -17.1086 20.401 -11.8309
3 -20.4133 22.8443 -11.6425
3 -23.529 20.2915 -17.5312
3 -20.2524 18.0806 -17.6114
3 -16.9086 20.2956 -17.4015
3 -20.3072 22.8191 -17.4459
3 -23.0667 23.0064 -20.3731
3 -17.4133 23.0584 -20.393
3 -17.7418 17.3126 -14.5331
3 -22.8325 17.432 -14.5743
1 -20.2796 20.5471 -8.5159
1 -20.3979 20.4343 -2.91236
1 -20.7052 14.8326 -8.64875
4 -20.3641 25.8111 -2.86919
2 -23.3715 17.5418 -11.6816
2 -23.3665 23.223 -11.6465
2 -23.4453 17.6038 -5.84976
2 -23.2748 23.4607 -5.82587
3 -24.0091 20.3889 -11.5452
3 -20.4871 18.1377 -11.3421
3 -17.3671 20.531 -0.341727
3 -20.4177 23.2193 -0.0514274
3 -23.1901 20.5285 -5.7592
3 -20.5214 17.7155 -6.15247
3 -17.4864 20.5126 -5.52349
3 -20.3735 23.3117 -5.78246
3 -23.1024 23.1526 -8.72448
3 -17.5091 23.0899 -8.72973
3 -18.0758 17.3813 -2.93067
3 -23.0218 17.6043 -2.9575
1 -20.4266 20.5387 2.68504
1 -20.2389 20.304 8.6947
1 -20.7679 14.9481 2.77933
4 -20.5234 25.4772 8.71962
2 -23.4619 17.6151 -0.0696775
2 -23.3238 23.4547 -0.0282641
2 -23.491 17.5856 5.78899
2 -23.5402 23.2473 5.8118
3 -23.2811 20.5324 -0.12412
3 -20.537 17.8019 0.227594
3 -17.2651 20.3399 11.3067
3 -20.5383 22.8124 11.6205
3 -24.2229 20.4189 5.68255
3 -20.6022 18.1347 5.47831
3 -17.2935 20.3849 6.07374
3 -20.5886 22.8432 5.79832
3 -23.2472 23.1369 2.87661
3 -17.6353 23.0494 2.88957
3 -18.051 17.2014 8.66687
3 -23.0087 17.5263 8.69925
1 -20.3867 20.4109 14.659
1 -20.2165 20.2586 20.2255
1 -20.5869 14.8652 14.5503
4 -20.2377 25.5984 20.1566
2 -23.417 17.5249 11.6124
2 -23.4863 23.2101 11.6413
2 -23.297 17.4734 17.4732
2 -23.2366 23.2888 17.4871
3 -24.0786 20.3631 11.7527
3 -20.5252 18.0334 11.8674
3 -17.2723 20.3021 22.844
3 -20.14 23.0447 22.9817
3 -23.2108 20.3709 17.5407
3 -20.3767 17.7242 17.2189
3 -17.1836 20.3867 17.6957
3 -20.3142 23.0162 17.4242
3 -23.1774 23.0365 14.5731
3 -17.5517 22.9278 14.4893
3 -17.8043 17.1899 20.3254
3 -22.8782 17.3776 20.3681
4 -19.8734 20.3014 25.5534
4 -20.3192 14.1471 25.5724
2 -23.134 17.3334 23.3121
2 -23.0981 23.2173 23.3479
3 -22.8268 20.2352 23.1339
3 -20.2434 17.2485 23.4962
3 -22.6736 22.7947 26.2837
3 -17.1744 23.0332 26.1524
4 -14.5571 25.5788 -25.7742
3 -11.7776 26.2753 -23.3451
3 -11.6279 23.2225 -26.289
3 -17.4312 23.2097 -26.3244
4 -14.6256 25.649 -20.4636
4 -14.2799 25.6527 -14.5292
1 -14.6287 20.2579 -20.4992
2 -17.4401 23.2854 -23.3257
2 -17.4051 23.2176 -17.4719
3 -17.3438 26.2512 -23.3074
3 -14.5619 23.0632 -23.1891
3 -11.4329 26.1903 -11.9045
3 -17.7299 26.1958 -17.5407
3 -14.5336 23.5212 -17.4925
3 -11.3268 26.1008 -17.3199
3 -11.6646 22.8406 -14.5595
3 -17.3578 23.1735 -14.5696
4 -14.6914 25.7391 -8.65615
4 -14.186 25.7301 -2.99439
1 -14.6976 20.6055 -8.75413
2 -17.5123 23.3142 -11.6592
2 -17.4899 23.4779 -5.81273
3 -17.8153 26.258 -11.6581
3 -14.6157 23.4753 -11.575
3 -11.3924 26.27 -0.360645
3 -17.6067 26.4268 -6.19157
3 -14.6186 23.3316 -5.83527
3 -11.5603 26.2155 -5.75343
3 -11.7179 22.8832 -2.94598
3 -17.3746 23.6557 -2.9181
4 -14.9608 25.7984 3.06616
4 -14.6656 25.6436 8.70945
1 -14.7892 20.6243 2.94204
2 -17.5287 23.491 -0.0215145
2 -17.6836 23.2832 5.80262
3 -17.8456 26.434 0.36501
3 -14.6583 23.6169 0.0564909
3 -11.942 26.3098 11.3468
3 -17.8895 26.237 5.76711
3 -14.7752 23.3385 5.7978
3 -11.9878 26.3402 6.05835
3 -11.8248 22.9549 8.66723
3 -17.6208 23.2742 8.69937
4 -14.8809 25.7068 14.3084
4 -14.1688 25.6459 20.3196
1 -14.6917 20.4829 14.3883
2 -17.632 23.237 11.5879
2 -17.4244 23.3322 17.3832
3 -17.811 26.1887 11.7082
3 -14.7203 23.2594 11.5688
3 -11.4747 26.1708 23.1532
3 -17.7413 26.284 17.105
3 -14.5501 23.4942 17.2984
3 -11.3502 26.2402 17.6675
3 -11.5345 22.9592 20.2556
3 -17.2253 23.4586 20.2743
4 -14.2984 25.4814 25.6498
4 -14.4334 20.1584 25.4426
2 -17.2546 23.2418 23.1706
3 -17.1691 26.2288 23.3901
3 -14.3669 23.0176 23.0123
4 -8.73803 25.4119 -20.0738
4 -8.76734 25.4636 -8.79898
4 -8.7856 25.5409 2.61839
4 -8.71273 25.5254 14.6405
4 -8.54267 25.5716 25.4976
4 -25.5992 3.07649 -25.5616
4 -25.5202 8.86792 -25.7861
3 -23.0347 3.10259 -23.0283
3 -26.2364 6.09204 -23.396
3 -23.1986 0.24884 -26.2222
4 -25.3584 2.95877 -20.0072
4 -25.2857 3.04016 -14.4857
4 -25.4108 -2.63512 -20.2311
4 -25.5621 8.63127 -14.4355
3 -26.1237 0.172495 -23.1274
3 -22.7052 3.09448 -11.6651
3 -26.0745 5.77411 -11.8332
3 -25.9505 0.229037 -17.4925
3 -22.5676 3.05148 -17.429
3 -26.0574 5.52179 -17.2492
3 -23.2342 6.00605 -20.3602
3 -22.979 0.140873 -14.5179
4 -25.3534 3.01983 -8.75354
4 -25.3623 3.0721 -3.0017
4 -25.437 -2.37057 -8.754
4 -25.6763 8.38309 -2.98743
3 -25.9662 0.373206 -11.5068
3 -22.7717 3.13053 -0.109678
3 -26.1568 5.62903 -0.311004
3 -26.002 0.397273 -6.07676
3 -22.7151 3.11 -5.82295
3 -26.1128 5.65687 -5.71391
3 -23.2054 6.01992 -8.75932
3 -23.1214 0.136572 -2.95328
4 -25.4329 3.03232 2.71634
4 -25.4941 3.21964 8.57154
4 -25.4909 -2.38659 2.78573
4 -25.6113 8.69498 8.63972
3 -26.0347 0.344928 0.0689527
3 -22.9182 3.08024 11.4983
3 -26.205 5.84348 11.3238
3 -26.1138 0.434255 5.38905
3 -22.8635 3.12806 5.76265
3 -26.1987 5.93492 5.95013
3 -23.3226 6.06157 2.83729
3 -23.3965 0.166385 8.63397
4 -25.4421 2.96054 14.4384
4 -25.4706 2.9606 20.0226
4 -25.5011 -2.53186 14.4166
4 -25.6441 8.48227 20.2519
3 -26.1312 0.246609 11.8809
3 -23.0043 2.86619 22.9081
3 -26.1695 5.72698 23.1373
3 -26.0898 0.33259 17.1698
3 -22.8104 3.03108 17.3361
3 -26.2101 5.70034 17.5571
3 -23.3167 5.98915 14.4255
3 -23.2296 0.00148271 20.2238
4 -25.4986 2.80522 25.5092
4 -25.3417 -2.97918 25.5843
3 -26.1224 -0.156082 23.2687
3 -23.1469 5.67296 26.1351
4 -20.1949 8.76041 -25.7138
4 -20.1829 14.6354 -25.7462
3 -17.3971 8.85434 -23.2612
3 -20.3064 11.7291 -23.3949
3 -17.6101 5.9218 -26.3242
3 -23.1437 5.91672 -26.2668
1 -20.2003 8.89483 -20.4995
1 -20.2527 8.70887 -14.4817
1 -20.1901 3.15713 -20.4344
1 -20.255 14.3804 -14.5001
2 -23.2587 5.97753 -23.2742
2 -23.215 11.73 -23.3743
2 -23.0973 5.92476 -17.4394
2 -23.0928 11.6484 -17.5159
3 -23.0057 8.8562 -23.2
3 -20.3234 5.98052 -23.1166
3 -16.8606 8.97147 -11.9275
3 -20.2661 11.3886 -11.8909
3 -23.4852 8.78821 -17.4646
3 -20.2061 6.47909 -17.6982
3 -16.7027 8.86296 -17.4092
3 -20.1974 11.0752 -17.3691
3 -22.9242 11.7193 -20.4412
3 -17.5424 11.6565 -20.4159
3 -17.6572 5.92586 -14.5509
3 -22.7677 5.89875 -14.5479
1 -20.5415 8.97746 -8.76035
1 -20.1966 8.72599 -2.96602
1 -20.3712 3.40685 -8.75213
1 -20.5387 14.5489 -2.95934
2 -23.1257 5.95913 -11.6636
2 -23.182 11.7387 -11.7041
2 -23.1732 5.98263 -5.84794
2 -23.4894 11.7723 -5.85726
3 -23.1973 8.84554 -11.6349
3 -20.2002 6.34908 -11.3786
3 -17.0717 8.99221 -0.445273
3 -20.5324 11.5505 -0.487179
3 -23.3894 8.87408 -5.89315
3 -20.2572 6.41594 -6.11952
3 -17.0634 8.97803 -5.442
3 -20.515 11.5796 -5.44826
3 -22.9683 11.8153 -8.77615
3 -17.8196 11.526 -8.70338
3 -17.7621 5.7863 -2.92991
3 -22.7817 5.94458 -2.96095
1 -20.6281 8.98862 2.87396
1 -20.2963 8.69645 8.63567
1 -20.5047 3.45873 2.85323
1 -20.4126 14.3182 8.66493
2 -23.2276 6.00729 -0.0786789
2 -23.4938 11.7935 -0.0721469
2 -23.248 6.00239 5.74697
2 -23.2512 11.7823 5.76901
3 -23.4728 8.89472 -0.0133935
3 -20.3086 6.43764 0.22795
3 -16.9855 8.91932 11.2332
3 -20.3135 11.3542 11.2744
3 -23.2922 8.88975 5.74183
3 -20.307 6.36039 5.4764
3 -16.974 8.97584 6.12399
3 -20.3423 11.4032 6.06033
3 -22.9819 11.8749 2.85037
3 -17.8847 11.4953 2.83626
3 -17.8037 5.78953 8.65245
3 -22.8597 5.94804 8.63327
1 -20.4976 8.89307 14.4194
1 -20.2289 8.57663 20.2212
1 -20.5114 3.3394 14.3916
1 -20.3093 14.3819 20.2262
2 -23.2555 5.96159 11.5109
2 -23.2201 11.7371 11.5634
2 -23.2498 5.91218 17.3194
2 -23.3076 11.6872 17.3604
3 -23.3011 8.84666 11.5747
3 -20.3117 6.26683 11.8049
3 -17.4074 8.71756 22.8312
3 -20.3517 11.5224 22.8555
3 -23.3942 8.80039 17.309
3 -20.3106 6.29551 17.1147
3 -17.0021 8.84644 17.6926
3 -20.3824 11.3728 17.7256
3 -22.8961 11.7899 14.4696
3 -17.7903 11.4859 14.4746
3 -17.649 5.67046 20.2097
3 -22.9744 5.80657 20.2136
4 -20.2065 8.65449 25.4247
4 -20.1887 2.8401 25.4871
2 -23.2009 5.74547 23.1383
2 -23.2914 11.5276 23.1446
3 -23.0378 8.63969 22.9608
3 -20.301 5.76024 23.1148
3 -23.1396 11.4976 26.1245
3 -17.7236 11.328 26.1793
4 -14.5981 14.5182 -25.7129
4 -14.5221 20.2647 -25.7111
3 -11.6602 14.6005 -23.3794
3 -14.5608 17.4419 -23.2753
3 -11.8273 11.6305 -26.3399
3 -17.3717 11.7766 -26.3421
1 -14.5414 14.6635 -20.608
1 -14.1634 14.4917 -14.5573
1 -14.5998 8.86479 -20.5577
1 -14.4993 20.2828 -14.5128
2 -17.4231 11.7297 -23.3688
2 -17.4377 17.484 -23.3791
2 -17.3285 11.7428 -17.4523
2 -17.4106 17.3897 -17.4576
3 -17.4295 14.607 -23.1917
3 -14.5523 11.7464 -23.1227
3 -11.1767 14.572 -11.986
3 -14.7115 17.0042 -11.8677
3 -18.1468 14.5684 -17.6312
3 -14.4836 12.3922 -17.7242
3 -11.0181 14.5271 -17.2984
3 -14.548 16.794 -17.4635
3 -17.3775 17.5274 -20.4234
3 -11.7306 17.313 -20.4326
3 -11.9875 11.4303 -14.5665
3 -17.1552 12.1485 -14.5389
1 -15.1052 14.9158 -8.67275
1 -14.2878 14.5236 -2.93607
1 -14.7916 9.39119 -8.71545
1 -14.5829 20.353 -2.97978
2 -17.4037 11.8492 -11.6256
2 -17.5999 17.5361 -11.6087
2 -17.5759 11.8444 -5.78346
2 -17.616 17.5836 -5.79194
3 -18.0986 14.6928 -11.2393
3 -14.5477 12.3773 -11.2718
3 -11.3346 14.6584 -0.369368
3 -14.7537 17.1844 -0.388621
3 -17.9637 14.713 -6.20948
3 -14.6514 12.2662 -6.14664
3 -11.3351 14.6066 -5.4838
3 -14.7325 17.2202 -5.47135
3 -17.3188 17.9588 -8.69487
3 -12.1732 17.2226 -8.72185
3 -12.1298 11.4632 -2.92723
3 -17.3297 12.396 -2.93094
1 -15.1739 14.9593 2.82803
1 -14.2215 14.5601 8.67669
1 -14.835 9.40721 2.85625
1 -14.5731 20.3725 8.66645
2 -17.6048 11.8593 -0.07526
2 -17.626 17.6045 -0.0647888
2 -17.4806 11.855 5.75794
2 -17.7101 17.5268 5.77138
3 -18.0318 14.7302 0.354033
3 -14.6788 12.3074 0.303972
3 -11.2932 14.613 11.2405
3 -14.7305 17.1362 11.3171
3 -18.144 14.6937 5.31745
3 -14.619 12.3771 5.38289
3 -11.2923 14.6546 6.12867
3 -14.7904 17.1342 6.05588
3 -17.4187 17.9867 2.85396
3 -12.2781 17.2845 2.87006
3 -12.1159 11.4632 8.67238
3 -17.1953 12.3306 8.65026
1 -15.0819 14.8428 14.5049
1 -14.4229 14.4149 20.3704
1 -14.7809 9.30735 14.4762
1 -14.3539 20.2762 20.2292
2 -17.4494 11.7983 11.5292
2 -17.6427 17.4787 11.5559
2 -17.4829 11.7169 17.3896
2 -17.4719 17.4791 17.4336
3 -18.0349 14.6405 11.9729
3 -14.5942 12.2874 11.9272
3 -11.5584 14.5232 22.8713
3 -14.473 17.3927 22.8042
3 -17.9291 14.6021 17.106
3 -14.5995 12.2584 17.113
3 -11.1847 14.5857 17.6937
3 -14.6063 17.0578 17.7399
3 -17.3619 17.8396 14.5053
3 -12.2099 17.2103 14.4613
3 -11.9698 11.4527 20.3226
3 -17.2436 11.9616 20.2978
4 -14.2609 14.6937 25.5108
4 -14.7307 8.54392 25.5394
2 -17.4425 11.6026 23.2238
2 -17.358 17.393 23.2323
3 -17.3263 14.4958 23.3577
3 -14.5459 11.6136 23.3478
3 -17.0703 17.6446 26.1949
3 -11.6604 17.4267 26.1144
4 -8.8593 20.2796 -25.6736
4 -8.7999 25.6861 -25.5916
3 -5.95259 20.3179 -23.3307
3 -8.80883 23.0971 -23.0849
3 -5.91567 17.3926 -26.3001
3 -11.6648 17.667 -26.3605
1 -8.84413 20.2798 -20.5062
1 -8.668 20.1783 -14.4586
1 -8.88947 14.6082 -20.5504
4 -8.77815 25.3479 -14.5659
2 -11.684 17.4826 -23.3937
2 -11.6859 23.2968 -23.2984
2 -11.6605 17.3885 -17.4774
2 -11.6631 23.1286 -17.4579
3 -11.694 20.3688 -23.1684
3 -8.81347 17.4619 -23.1837
3 -5.63076 20.1854 -11.8551
3 -8.85426 22.8079 -11.6799
3 -12.2668 20.2571 -17.6702
3 -8.81333 18.0508 -17.6033
3 -5.36998 20.1595 -17.302
3 -8.78014 22.6396 -17.4516
3 -11.7064 23.2055 -20.3805
3 -5.92033 22.9302 -20.3581
3 -6.33463 17.0791 -14.5329
3 -11.6817 17.708 -14.5606
1 -9.14079 20.4799 -8.74022
1 -8.65701 20.2955 -2.9563
1 -9.13765 15.0032 -8.72237
4 -8.8536 25.4744 -3.0374
2 -11.8135 17.419 -11.6437
2 -11.7275 23.2518 -11.6733
2 -11.8208 17.4751 -5.80047
2 -11.7282 23.2638 -5.84072
3 -12.1452 20.3292 -11.4242
3 -8.93473 17.889 -11.3311
3 -5.69078 20.2375 -0.349659
3 -8.91228 22.867 -0.108046
3 -12.1104 20.3586 -6.1311
3 -8.94907 17.8768 -6.17342
3 -5.66539 20.2213 -5.55182
3 -8.86905 22.8536 -5.8347
3 -11.7678 23.3102 -8.75953
3 -6.08131 22.8165 -8.74153
3 -6.58966 17.0922 -2.90044
3 -11.5937 17.9262 -2.92007
1 -9.26777 20.6503 2.89314
1 -8.82506 20.3887 8.64865
1 -9.20747 15.077 2.89473
4 -9.20685 25.6535 8.63329
2 -11.8512 17.5437 -0.0370761
2 -11.7809 23.3444 -0.0545839
2 -11.8723 17.5204 5.77506
2 -11.8679 23.3922 5.78281
3 -12.2549 20.4409 0.272034
3 -8.98583 17.9788 0.395876
3 -5.81061 20.3819 11.1304
3 -8.91282 23.1146 11.537
3 -12.1381 20.4402 5.52086
3 -8.99647 17.9798 5.377
3 -5.76854 20.3911 6.22475
3 -8.96912 23.0773 5.78751
3 -11.8599 23.489 2.873
3 -6.14658 22.8518 2.86125
3 -6.68149 17.1809 8.66555
3 -11.6776 17.8855 8.66975
1 -9.09151 20.607 14.3964
1 -8.57006 20.2329 20.2188
1 -9.12981 14.9354 14.4494
4 -8.64453 25.4604 20.1397
2 -11.8106 17.4869 11.5578
2 -11.8153 23.358 11.5473
2 -11.7188 17.4528 17.3369
2 -11.6673 23.2927 17.3579
3 -12.0124 20.4073 11.826
3 -8.94016 17.8613 12.0053
3 -5.78501 20.2242 22.9883
3 -8.60174 22.9918 22.9788
3 -12.1064 20.3689 17.0899
3 -8.8478 17.9376 16.9536
3 -5.56887 20.2475 17.5604
3 -8.78844 22.8406 17.3893
3 -11.7623 23.4258 14.4562
3 -6.03009 22.8841 14.441
3 -6.14491 17.2608 20.2042
3 -11.3975 17.7409 20.2179
4 -8.594 20.1616 25.5432
4 -8.69472 14.4437 25.487
2 -11.5828 17.4099 23.1391
2 -11.478 23.1984 23.1885
3 -11.5079 20.3013 23.19
3 -8.70281 17.3394 23.1388
3 -11.3836 23.2 26.1843
3 -5.71743 23.1264 26.1514
4 -3.03912 25.5356 -25.6707
3 -0.220084 26.1592 -23.2701
3 -0.144487 23.1294 -26.2388
3 -5.98744 23.276 -26.2841
4 -3.1281 25.5243 -20.3583
4 -2.80905 25.4756 -14.4639
1 -3.11145 20.1876 -20.4151
2 -5.92839 23.2278 -23.2855
2 -5.88669 23.0665 -17.4337
3 -5.85916 26.1971 -23.2107
3 -3.05492 22.9697 -23.1379
3 0.111681 26.0164 -11.9196
3 -6.08132 26.0585 -17.5393
3 -3.01055 23.3364 -17.4425
3 0.188425 25.9549 -17.286
3 -0.13421 22.6746 -14.5106
3 -5.85914 23.0641 -14.5411
4 -3.36743 25.5444 -8.70152
4 -2.90311 25.5006 -2.89821
1 -3.23611 20.3613 -8.70363
2 -5.96664 23.1167 -11.6423
2 -5.98794 23.1549 -5.84346
3 -6.11101 26.0751 -11.5216
3 -3.0834 23.2079 -11.5597
3 -0.124173 26.0595 -0.200114
3 -6.18649 26.11 -6.06765
3 -3.10911 23.2161 -5.85036
3 -0.0975129 26.0849 -5.54168
3 -0.201079 22.713 -2.92463
3 -5.94563 23.2062 -2.95284
4 -3.34508 25.5794 2.74971
4 -2.66901 25.568 8.68283
1 -3.25742 20.5027 2.85511
2 -6.0225 23.1584 -0.0542532
2 -6.05448 23.3394 5.77073
3 -6.08367 26.1231 0.00224923
3 -3.13636 23.1729 -0.0208799
3 0.0872237 26.0411 11.4142
3 -6.19149 26.2728 5.23297
3 -3.1504 23.3412 5.7258
3 0.089853 26.0545 6.00504
3 -0.175435 22.7011 8.66678
3 -6.02081 23.7458 8.65371
4 -3.19855 25.5595 14.4965
4 -2.7693 25.4305 20.2767
1 -3.1587 20.4921 14.4515
2 -6.0002 23.3445 11.5259
2 -5.90026 23.1617 17.3483
3 -6.04301 26.2787 12.094
3 -3.09712 23.2444 11.5801
3 0.0572258 26.0435 22.9599
3 -6.02711 26.1226 17.3411
3 -3.01683 23.2158 17.3353
3 -0.0171678 26.0492 17.5768
3 -0.0376631 22.7284 20.2772
3 -5.74715 23.1233 20.2623
4 -2.78869 25.5165 25.4643
4 -3.01776 19.9066 25.5192
2 -5.71321 23.1434 23.1758
3 -5.65261 26.1346 23.138
3 -2.83546 22.8355 23.047
4 2.77188 25.2706 -20.0259
4 2.79961 25.3147 -8.85543
4 2.69533 25.3212 2.93835
4 2.77739 25.3059 14.361
4 3.04458 25.5965 25.328
4 -25.5709 -8.38056 -25.3853
4 -25.5056 -2.66242 -25.5673
3 -22.838 -8.39924 -23.0201
3 -26.0711 -5.45599 -23.1128
3 -23.2831 -11.2087 -26.2046
4 -25.1541 -8.48749 -20.0519
4 -25.1269 -8.41654 -14.5984
4 -25.3045 -13.9519 -20.208
4 -25.3651 -2.87432 -14.5124
3 -25.955 -11.2876 -22.9575
3 -22.6572 -8.43435 -11.6084
3 -25.9603 -5.75557 -11.9977
3 -25.8009 -11.1263 -17.5194
3 -22.3911 -8.4677 -17.3952
3 -25.8339 -5.82643 -17.337
3 -22.9452 -5.52545 -20.3023
3 -22.8977 -11.3635 -14.4617
4 -25.213 -8.59629 -8.67515
4 -25.1952 -8.39657 -2.90249
4 -25.2159 -14.0076 -8.67124
4 -25.4009 -2.93524 -2.9294
3 -25.8336 -11.3745 -11.4137
3 -22.6125 -8.40927 -0.0453171
3 -25.96 -5.74959 -0.262931
3 -25.8337 -11.2728 -6.02259
3 -22.5909 -8.43153 -5.78805
3 -25.954 -5.81707 -5.57878
3 -23.1485 -5.5239 -8.72844
3 -22.9936 -11.3676 -2.89764
4 -25.2167 -8.52055 2.88499
4 -25.2156 -8.43738 8.64549
4 -25.2423 -13.9212 2.87487
4 -25.455 -3.04676 8.6758
3 -25.8399 -11.2102 0.211611
3 -22.6379 -8.46992 11.5209
3 -25.9738 -5.85367 11.3855
3 -25.8419 -11.2039 5.56762
3 -22.5945 -8.41308 5.79353
3 -25.9742 -5.85158 6.00588
3 -23.128 -5.47582 2.86104
3 -22.9965 -11.3851 8.65219
4 -25.2337 -8.60001 14.3669
4 -25.3076 -8.54974 20.024
4 -25.2841 -14.05 14.3653
4 -25.4386 -3.03682 20.2578
3 -25.8593 -11.3109 11.7374
3 -22.8561 -8.66461 22.9036
3 -25.9887 -5.78916 23.0658
3 -25.9026 -11.2477 17.1158
3 -22.6605 -8.50688 17.3201
3 -26.0318 -5.8117 17.5665
3 -23.108 -5.56778 14.447
3 -23.0705 -11.5071 20.1984
4 -25.4544 -8.74664 25.41
4 -25.267 -14.4837 25.5162
3 -26.0019 -11.6793 23.1457
3 -23.1196 -5.93519 26.1668
4 -20.0998 -2.63861 -25.6068
4 -20.2218 3.14414 -25.627
3 -17.2923 -2.66067 -23.1074
3 -20.2425 0.259447 -23.266
3 -17.5755 -5.38883 -26.326
3 -23.1202 -5.56071 -26.1826
1 -20.1109 -2.55618 -20.3779
1 -20.0868 -2.79429 -14.4665
1 -20.0054 -8.27243 -20.4227
1 -20.0614 2.89531 -14.4743
2 -23.0829 -5.52054 -23.2061
2 -23.1554 0.225653 -23.226
2 -22.8551 -5.59326 -17.394
2 -22.9518 0.164655 -17.3979
3 -22.9029 -2.64557 -23.0747
3 -20.1473 -5.48552 -23.0781
3 -16.7398 -2.56567 -11.8681
3 -20.0767 -0.108947 -11.8758
3 -23.096 -2.71873 -17.3957
3 -19.9756 -5.0603 -17.6787
3 -16.5534 -2.66953 -17.4503
3 -20.0287 -0.278367 -17.2293
3 -22.8394 0.195232 -20.3079
3 -17.4873 0.210128 -20.3525
3 -17.4668 -5.57119 -14.5275
3 -22.5663 -5.62918 -14.5073
1 -20.2447 -2.52478 -8.73852
1 -20.0827 -2.78726 -2.91442
1 -20.2385 -8.11925 -8.72416
1 -20.1831 2.89113 -2.93991
2 -23.0265 -5.5551 -11.6291
2 -23.0079 0.214123 -11.6253
2 -23.0114 -5.55168 -5.8179
2 -23.0462 0.222165 -5.84075
3 -23.0789 -2.67096 -11.5944
3 -20.0763 -5.21396 -11.3412
3 -16.7649 -2.53622 -0.363785
3 -20.1438 -0.0810247 -0.336234
3 -23.145 -2.66709 -5.87879
3 -20.0839 -5.15264 -6.13038
3 -16.7468 -2.55079 -5.49251
3 -20.1169 -0.129373 -5.54261
3 -22.6945 0.323708 -8.73506
3 -17.5237 0.0741508 -8.71416
3 -17.6005 -5.69049 -2.90882
3 -22.5971 -5.59301 -2.93148
1 -20.3839 -2.51796 2.86115
1 -20.0359 -2.83935 8.67488
1 -20.2752 -8.0497 2.86723
1 -20.2765 2.93547 8.62922
2 -23.017 -5.53336 -0.048756
2 -23.0746 0.241461 -0.0610872
2 -23.0352 -5.53666 5.76873
2 -23.1645 0.235533 5.74461
3 -23.1104 -2.64943 -0.0171801
3 -20.0872 -5.15431 0.268
3 -16.8616 -2.59665 11.1679
3 -20.2293 -0.0433536 11.1775
3 -23.2326 -2.65611 5.71022
3 -20.1047 -5.11644 5.49353
3 -16.8115 -2.54291 6.18587
3 -20.2252 -0.093788 6.12925
3 -22.7594 0.353918 2.8439
3 -17.621 -0.0161052 2.88613
3 -17.5836 -5.78335 8.67739
3 -22.6219 -5.61606 8.65453
1 -20.3956 -2.65106 14.4648
1 -20.0532 -2.89705 20.2154
1 -20.2812 -8.17356 14.4272
1 -20.1899 2.86185 20.1717
2 -23.0298 -5.59296 11.5316
2 -23.1759 0.18457 11.5155
2 -23.0713 -5.6295 17.3472
2 -23.1271 0.13823 17.319
3 -23.1335 -2.70897 11.5756
3 -20.1055 -5.24251 11.8325
3 -17.2444 -2.81418 22.7907
3 -20.2147 0.0394095 22.8908
3 -23.2116 -2.75142 17.3033
3 -20.1286 -5.25012 17.1843
3 -16.8037 -2.67279 17.7376
3 -20.212 -0.218232 17.6059
3 -22.7906 0.246838 14.4231
3 -17.6393 -0.155913 14.414
3 -17.425 -5.97547 20.3125
3 -22.7574 -5.72928 20.2443
4 -19.9524 -2.72732 25.438
4 -20.1515 -8.79591 25.5508
2 -23.0064 -5.78772 23.1761
2 -23.1388 -0.02201 23.1293
3 -22.8262 -2.90165 22.9962
3 -20.1038 -5.79398 23.2635
3 -22.9943 -0.00299285 26.1122
3 -17.4143 0.0330607 26.0785
4 -14.5656 3.01886 -25.6424
4 -14.485 8.90284 -25.6833
3 -11.6474 3.05965 -23.221
3 -14.5522 5.97297 -23.3334
3 -11.9977 0.30265 -26.3635
3 -17.3587 0.220508 -26.2485
1 -14.6114 3.23545 -20.524
1 -13.9361 2.87014 -14.5836
1 -14.3864 -2.69709 -20.5768
1 -14.3254 8.41495 -14.5875
2 -17.3464 0.224819 -23.2846
2 -17.4349 5.97861 -23.3607
2 -17.1386 0.231894 -17.4349
2 -17.3099 5.97818 -17.4533
3 -17.4054 3.10719 -23.1407
3 -14.4643 0.232924 -23.0044
3 -10.9615 3.07989 -11.9964
3 -14.4541 5.44173 -12.0125
3 -17.8544 3.10072 -17.5902
3 -14.2897 0.828453 -17.7779
3 -10.9003 3.00676 -17.313
3 -14.4266 5.37023 -17.245
3 -17.2531 6.05831 -20.4035
3 -11.8294 5.79135 -20.3948
3 -11.7186 -0.109319 -14.5802
3 -16.9101 0.534872 -14.5362
1 -14.8898 3.38352 -8.73024
1 -13.9713 2.94367 -2.92088
1 -14.5603 -2.15631 -8.71052
1 -14.3804 8.46383 -2.93464
2 -17.1971 0.322644 -11.6328
2 -17.2953 6.07652 -11.6452
2 -17.2373 0.335126 -5.78495
2 -17.3639 6.06948 -5.815
3 -17.758 3.18659 -11.339
3 -14.3206 0.796119 -11.3037
3 -11.0242 3.1218 -0.369741
3 -14.5246 5.53698 -0.366956
3 -17.7925 3.1932 -6.17944
3 -14.3505 0.793374 -6.15878
3 -11.0048 3.10187 -5.48677
3 -14.496 5.52089 -5.49012
3 -17.0744 6.44173 -8.72627
3 -11.8969 5.64874 -8.74802
3 -11.8177 -0.0874363 -2.91941
3 -16.9942 0.796293 -2.90823
1 -14.9299 3.423 2.88782
1 -13.9971 2.92089 8.68627
1 -14.5972 -2.13299 2.89049
1 -14.3612 8.4576 8.67757
2 -17.2668 0.347962 -0.0263132
2 -17.403 6.08516 -0.0422007
2 -17.3268 0.336168 5.79776
2 -17.3966 6.07528 5.76739
3 -17.8289 3.20876 0.373677
3 -14.3783 0.811791 0.341119
3 -11.0714 3.09833 11.2833
3 -14.5088 5.50885 11.244
3 -17.8484 3.19704 5.35673
3 -14.4137 0.79059 5.44525
3 -11.0457 3.12372 6.14021
3 -14.5253 5.51399 6.13353
3 -17.1297 6.49659 2.8618
3 -11.941 5.67669 2.87897
3 -11.8238 -0.0890862 8.69963
3 -17.0621 0.853098 8.66362
1 -14.836 3.34345 14.4627
1 -14.3285 2.87618 20.37
1 -14.5965 -2.25756 14.48
1 -14.4356 8.63569 20.3855
2 -17.3234 0.28803 11.5163
2 -17.3932 6.01674 11.5327
2 -17.32 0.201628 17.2958
2 -17.3872 5.95422 17.3179
3 -17.7661 3.14682 12.0052
3 -14.4183 0.69961 11.9089
3 -11.5672 2.97644 22.9366
3 -14.5204 5.79898 22.9198
3 -17.8724 3.0745 16.9545
3 -14.4267 0.747741 17.1181
3 -11.0207 3.0928 17.7725
3 -14.5309 5.38626 17.6688
3 -17.1429 6.41649 14.44
3 -11.8939 5.70494 14.5079
3 -11.5988 -0.0992702 20.3544
3 -17.2005 0.426086 20.1956
4 -14.4769 2.96742 25.49
4 -14.54 -2.67342 25.5396
2 -17.3171 0.0703282 23.1079
2 -17.4078 5.82987 23.1407
3 -17.3442 2.95373 23.1298
3 -14.4273 0.0797927 23.0481
3 -17.4665 5.90363 26.1118
3 -11.9023 5.65611 26.226
4 -8.9002 8.74308 -25.6528
4 -8.67468 14.6062 -25.7082
3 -5.92729 8.78135 -23.275
3 -8.80658 11.6945 -23.3421
3 -6.31222 6.03614 -26.3936
3 -11.6251 6.03845 -26.2857
1 -8.90415 8.94807 -20.5358
1 -8.28264 8.51459 -14.6116
1 -8.76999 3.06615 -20.571
1 -8.60486 14.0349 -14.5593
2 -11.6603 5.94873 -23.3288
2 -11.6804 11.7145 -23.3796
2 -11.5154 5.90225 -17.489
2 -11.6418 11.6408 -17.4821
3 -11.7148 8.83599 -23.1032
3 -8.77939 5.97141 -23.0139
3 -5.31938 8.70144 -11.9906
3 -8.83618 11.0525 -12.0071
3 -12.2051 8.77352 -17.7487
3 -8.65022 6.4775 -17.8284
3 -5.2491 8.67249 -17.3231
3 -8.75481 11.0285 -17.2524
3 -11.5017 11.8572 -20.4218
3 -6.08885 11.4689 -20.3969
3 -6.07932 5.533 -14.61
3 -11.2832 6.2054 -14.58
1 -9.26965 9.00061 -8.74333
1 -8.32637 8.54834 -2.92659
1 -8.88303 3.48734 -8.75175
1 -8.73707 14.0703 -2.92564
2 -11.5816 5.95351 -11.6626
2 -11.6997 11.6937 -11.651
2 -11.6063 5.96676 -5.83599
2 -11.7636 11.7161 -5.82747
3 -12.2416 8.81709 -11.3097
3 -8.70091 6.46187 -11.3394
3 -5.38625 8.75546 -0.364311
3 -8.90864 11.1412 -0.38419
3 -12.2212 8.83156 -6.17194
3 -8.71953 6.44779 -6.16788
3 -5.37566 8.723 -5.48961
3 -8.88884 11.1271 -5.48068
3 -11.4133 12.0259 -8.73207
3 -6.28647 11.2513 -8.73621
3 -6.15728 5.53733 -2.92567
3 -11.3287 6.3172 -2.92995
1 -9.30056 9.0464 2.87744
1 -8.33577 8.56753 8.69731
1 -8.92566 3.51905 2.89047
1 -8.70287 14.0942 8.682
2 -11.6308 5.99402 -0.0269959
2 -11.786 11.7589 -0.0305811
2 -11.6374 5.99851 5.78227
2 -11.7606 11.7595 5.77219
3 -12.2477 8.86393 0.317353
3 -8.73881 6.47114 0.319708
3 -5.39517 8.75316 11.275
3 -8.86243 11.1705 11.2452
3 -12.2563 8.8693 5.4259
3 -8.74428 6.48408 5.45367
3 -5.38969 8.77812 6.14512
3 -8.8909 11.1588 6.14547
3 -11.4328 12.0804 2.86802
3 -6.32759 11.2974 2.88756
3 -6.15342 5.564 8.71339
3 -11.3201 6.30613 8.68583
1 -9.25682 8.97251 14.5189
1 -8.58008 8.60251 20.4523
1 -8.91584 3.48055 14.5484
1 -8.62899 14.4027 20.3672
2 -11.6241 5.97278 11.5877
2 -11.7333 11.7201 11.5723
2 -11.6583 5.9523 17.4318
2 -11.7125 11.7074 17.4115
3 -12.2084 8.83957 11.9072
3 -8.74213 6.44631 11.912
3 -5.8012 8.69084 22.9784
3 -8.76101 11.5677 22.9201
3 -12.288 8.824 17.1356
3 -8.7645 6.50618 17.2339
3 -5.30553 8.74924 17.7534
3 -8.86114 11.0594 17.7021
3 -11.4493 11.991 14.4921
3 -6.29622 11.2922 14.4745
3 -5.96107 5.58612 20.4528
3 -11.4737 6.19393 20.3446
4 -8.61595 8.90202 25.5803
4 -9.01586 2.9865 25.6933
2 -11.6321 5.86266 23.283
2 -11.6468 11.637 23.2675
3 -11.6708 8.75111 23.3829
3 -8.73612 5.86992 23.2824
3 -11.4377 11.9642 26.2104
3 -5.93031 11.636 26.1498
4 -3.11467 14.5061 -25.608
4 -2.99441 20.1468 -25.672
3 -0.189749 14.483 -23.1991
3 -3.06649 17.391 -23.1822
3 -0.473564 11.8074 -26.3475
3 -5.82424 11.8455 -26.2909
1 -3.13223 14.6107 -20.5188
1 -2.69608 14.2619 -14.5592
1 -3.08737 8.77632 -20.5692
1 -2.94787 20.1245 -14.4525
2 -5.92526 11.6674 -23.3347
2 -5.93993 17.4298 -23.3318
2 -5.84168 11.5658 -17.4824
2 -5.96943 17.2868 -17.4331
3 -5.96191 14.5525 -23.0771
3 -3.05073 11.6863 -23.0228
3 0.295291 14.3732 -11.9551
3 -3.19035 16.809 -11.902
3 -6.5406 14.4276 -17.7119
3 -2.98082 12.1744 -17.7767
3 0.447496 14.3495 -17.302
3 -3.07874 16.6866 -17.3517
3 -5.8916 17.5354 -20.3791
3 -0.268567 17.2239 -20.353
3 -0.474203 11.2513 -14.5755
3 -5.60881 11.8108 -14.5627
1 -3.6082 14.6582 -8.70875
1 -2.73849 14.2409 -2.92474
1 -3.26128 9.09626 -8.74132
1 -2.98517 20.1854 -2.92802
2 -5.95102 11.5582 -11.6454
2 -6.07073 17.3027 -11.6289
2 -5.99114 11.5824 -5.82847
2 -6.09495 17.3359 -5.77488
3 -6.55791 14.4231 -11.3025
3 -3.07478 12.1066 -11.2998
3 0.220419 14.4061 -0.376243
3 -3.24602 16.8566 -0.361948
3 -6.55346 14.4527 -6.1533
3 -3.10266 12.0747 -6.16456
3 0.219801 14.398 -5.46816
3 -3.21378 16.8726 -5.4784
3 -5.82696 17.6234 -8.70795
3 -0.699534 16.9946 -8.69713
3 -0.573589 11.203 -2.92034
3 -5.69529 11.9312 -2.92184
1 -3.66196 14.7186 2.88856
1 -2.71105 14.2617 8.69361
1 -3.29411 9.16231 2.89078
1 -2.94218 20.1054 8.68606
2 -6.01281 11.6225 -0.0163256
2 -6.13019 17.3722 -0.0166083
2 -6.00147 11.6555 5.7811
2 -6.12819 17.4761 5.81256
3 -6.61161 14.4897 0.350249
3 -3.12284 12.1252 0.33994
3 0.220795 14.4024 11.263
3 -3.18801 16.9831 11.167
3 -6.57015 14.5465 5.44176
3 -3.11039 12.1385 5.43923
3 0.217751 14.4206 6.13339
3 -3.2487 16.9492 6.20005
3 -5.76869 17.7559 2.90134
3 -0.742629 17.0098 2.8857
3 -0.550268 11.2222 8.70044
3 -5.66714 11.9603 8.68328
1 -3.51349 14.6915 14.4616
1 -2.89365 14.2585 20.358
1 -3.28827 9.08074 14.5252
1 -2.92704 20.1094 20.1933
2 -5.97022 11.6325 11.5819
2 -6.07671 17.4511 11.5028
2 -5.9843 11.5948 17.3642
2 -5.97415 17.3646 17.2875
3 -6.47128 14.5283 11.904
3 -3.08511 12.0851 11.9316
3 -0.0450843 14.3934 22.8638
3 -2.93568 17.2734 22.821
3 -6.5311 14.4901 17.0613
3 -3.08155 12.1666 17.1219
3 0.353967 14.4273 17.7874
3 -3.09568 16.8367 17.6833
3 -5.63731 17.73 14.3988
3 -0.596336 17.0239 14.4831
3 -0.282631 11.2525 20.3324
3 -5.77459 11.8035 20.2611
4 -2.9623 14.4468 25.4764