1307
 Atoms. Timestep: 10001410
4 -18.5249 19.049 -12.4194
4 -18.7247 18.3197 -0.333298
4 -18.1484 18.4539 12.6453
4 -18.762 12.8951 -17.8691
3 -15.3095 12.8277 -15.3181
3 -19.1303 16.4381 -15.4114
3 -15.1202 10.0883 -19.0208
4 -18.4151 13.0518 -12.7431
4 -17.7267 12.4084 -6.15686
4 -18.2529 6.25678 -12.0839
4 -18.2464 18.157 -6.5497
3 -19.2231 9.61795 -15.6983
3 -15.0789 12.7698 -3.12403
3 -18.872 15.2597 -3.20832
3 -18.5178 9.21412 -8.62989
3 -15.8339 12.55 -9.67274
3 -19.235 16.0451 -9.8668
3 -15.5401 16.0465 -12.6363
3 -14.8807 9.47403 -6.29567
4 -18.4321 12.6954 0.280639
4 -18.1463 12.2257 6.19658
4 -18.2828 6.47054 -0.0143097
4 -18.5017 17.9089 6.28722
3 -18.8238 9.82247 -3.06511
3 -15.2476 12.5182 9.14073
3 -18.8002 15.2516 9.24414
3 -19.0886 9.32815 3.25733
3 -15.3389 12.8281 3.04517
3 -19.1685 15.7214 2.98356
3 -15.7431 15.7647 -0.149609
3 -15.0439 9.26251 6.21006
4 -18.745 12.3556 12.2812
4 -18.1385 12.7942 18.8767
4 -18.7744 6.7219 12.7254
3 -18.8565 9.46304 9.34171
3 -19.3308 9.65206 15.6618
3 -15.7028 12.5884 15.3374
3 -19.4801 14.9808 15.2541
3 -15.4586 15.7039 12.3943
3 -16.0667 9.53052 18.9687
4 -13.1429 18.5558 -18.9302
3 -9.72521 19.5143 -15.5964
3 -9.00165 16.1097 -18.9508
3 -16.0438 16.0032 -18.8051
4 -12.5212 19.0206 -11.9802
4 -12.4987 18.5028 -6.80339
1 -12.2749 13.0434 -12.953
2 -16.0736 16.11 -15.7429
2 -15.9595 15.8513 -9.54481
3 -15.4544 19.2771 -15.2284
3 -12.54 16.093 -15.9025
3 -9.25709 19.2267 -3.67937
3 -15.4561 18.99 -9.64007
3 -12.6442 15.5433 -9.69913
3 -9.27442 19.7474 -9.61152
3 -9.38311 15.7305 -6.54669
3 -15.3432 15.5663 -6.47751
4 -12.491 18.63 -0.344371
4 -12.41 18.6581 6.1581
1 -12.4074 12.8228 -0.00592955
2 -15.8113 15.8033 -3.37136
2 -16.0807 15.9414 2.92345
3 -16.1078 18.9884 -3.23293
3 -12.6144 16.3342 -3.50608
3 -9.17856 18.8919 9.6388
3 -15.8337 19.0595 3.12326
3 -12.5461 16.0261 2.89431
3 -8.97211 19.3218 3.17439
3 -9.49132 15.8458 6.12183
3 -15.6891 15.4838 6.06548
4 -12.3906 18.0708 12.2419
4 -12.2916 18.4278 18.258
1 -12.6476 11.9534 12.1698
2 -15.7548 15.7419 9.24531
2 -15.9821 15.804 15.5448
3 -15.8021 19.0021 9.17299
3 -12.5618 15.8819 8.96223
3 -15.3065 18.8573 15.1607
3 -12.7339 15.5727 15.586
3 -9.32382 18.9632 15.2672
3 -9.76771 15.6995 18.7243
3 -15.1642 15.4193 19.2509
4 -6.58359 18.8524 -12.7252
4 -6.37976 18.6592 -0.373905
4 -6.58778 18.0808 12.1714
4 -19.1279 0.00844897 -17.9105
4 -17.8348 6.91833 -18.7942
3 -15.7855 0.0975976 -15.6883
3 -19.2061 3.09497 -15.5068
3 -16.1601 -2.4607 -19.2134
4 -18.1572 -0.209184 -12.4242
4 -18.1547 0.196238 -6.13654
4 -18.7384 -5.83137 -12.6183
4 -17.7438 6.17891 -6.09532
3 -19.2598 -3.43681 -16.1851
3 -14.9427 0.0358962 -3.20852
3 -18.8209 2.97763 -3.50944
3 -18.9399 -3.07899 -9.21698
3 -15.3978 -0.153719 -9.20948
3 -18.6989 3.38443 -9.25175
3 -15.7345 3.12202 -12.416
3 -14.4981 -3.12563 -6.03073
4 -18.559 0.708705 0.253546
4 -17.7377 -0.200289 6.12889
4 -18.0219 -6.27505 -0.374994
4 -17.8229 6.24698 6.20138
3 -18.514 -2.95432 -3.41603
3 -15.3943 -0.158592 9.49522
3 -18.8309 2.95408 8.54013
3 -18.5425 -3.14545 3.33165
3 -15.2963 0.0450767 2.79639
3 -18.9509 3.15506 3.55037
3 -15.703 3.3991 -0.0502886
3 -14.6761 -2.81889 6.0065
4 -18.7162 -0.595621 11.9397
4 -17.5053 0.0610392 18.2692
4 -18.4809 -6.73169 11.9327
4 -18.3132 6.59714 18.5801
3 -18.8754 -3.10552 8.52488
3 -19.0289 -2.53772 15.5612
3 -15.3003 0.105741 14.9876
3 -19.0858 3.20952 16.4041
3 -17.3512 3.07272 12.4148
3 -15.3293 -3.42312 18.5503
4 -12.6584 6.33311 -17.9144
4 -12.5623 12.853 -18.7135
3 -9.5563 6.39974 -15.4925
3 -12.8024 9.62048 -15.354
3 -9.72155 3.51745 -19.0224
3 -15.4912 3.7893 -19.0838
1 -12.4981 6.43187 -12.3148
1 -12.1922 6.39275 -5.90108
1 -11.8266 0.28832 -12.6189
1 -12.3363 12.735 -6.33881
2 -15.8392 3.32745 -15.6021
2 -15.999 9.56049 -15.9358
2 -15.5382 3.15259 -9.05118
2 -15.3363 9.47072 -9.51139
3 -15.8395 6.45429 -15.1482
3 -12.5584 3.14423 -15.4392
3 -8.78103 6.3745 -3.68485
3 -12.4629 9.12848 -2.52603
3 -15.5219 6.21616 -9.18287
3 -12.4737 3.31505 -9.73095
3 -9.53526 6.49298 -9.63874
3 -12.3513 10.2358 -10.2255
3 -16.3354 9.52642 -12.4985
3 -9.17012 9.99673 -12.8725
3 -9.85973 3.12582 -6.25636
3 -14.8629 3.00613 -6.16867
1 -12.4534 6.19141 0.139334
1 -12.2672 6.41886 6.18876
1 -12.0735 -6.3643e-05 -0.218711
1 -12.4079 12.8245 6.05761
2 -15.5165 3.23898 -3.21093
2 -15.6169 9.62032 -3.1132
2 -15.7824 3.28027 2.98605
2 -15.7669 9.55026 3.30621
3 -15.416 6.4714 -3.06313
3 -12.3257 3.448 -2.58363
3 -8.72559 6.32124 9.45789
3 -12.4739 9.09636 9.52177
3 -15.0873 6.31847 3.20502
3 -12.484 3.02705 2.65585
3 -9.46085 6.53807 3.08531
3 -12.4962 9.65155 2.7635
3 -16.0091 9.54002 0.16774
3 -8.76978 9.32382 -0.168663
3 -10.0687 3.33415 6.00757
3 -14.991 3.18244 6.18405
1 -12.0946 6.61825 12.3397
4 -12.6016 6.31401 17.8526
1 -12.3066 -0.475837 12.2542
4 -12.642 12.3897 18.3258
2 -15.7352 3.01471 9.37831
2 -15.822 9.23481 9.39223
2 -15.7549 3.22634 15.2496
2 -16.1968 9.40021 15.6019
3 -15.7787 6.10063 9.66698
3 -12.5419 3.28422 10.0965
3 -15.9782 6.37113 15.6
3 -12.682 3.41817 14.4489
3 -9.40842 6.40876 15.2784
3 -12.76 9.27909 15.4641
3 -15.8816 9.44011 12.4885
3 -9.11753 9.62159 12.4968
3 -10.4109 2.93918 18.477
3 -14.7982 2.89428 18.324
4 -6.32252 12.9289 -18.4351
4 -6.63916 19.1809 -18.3979
3 -3.25521 12.9184 -15.2864
3 -6.40364 16.2076 -15.7818
3 -2.76471 9.5426 -18.9232
3 -9.72104 9.55094 -19.3131
1 -6.29607 13.1401 -12.7364
1 -5.60114 13.0045 -6.78817
1 -6.68848 6.33116 -12.6845
4 -5.99673 19.133 -5.92799
2 -9.66779 9.69313 -15.9126
2 -9.63486 16.0916 -15.902
2 -9.3424 9.95429 -9.44442
2 -9.38755 16.3537 -9.76577
3 -9.43817 12.8936 -15.872
3 -6.41051 9.64206 -16.0858
3 -3.27632 13.0561 -3.49195
3 -6.40997 15.6709 -3.10771
3 -8.90764 13.0502 -9.52676
3 -6.3385 9.32896 -8.87172
3 -3.54543 13.0898 -10.0036
3 -6.18817 16.247 -9.60881
3 -9.5424 16.1552 -12.7433
3 -3.20386 16.6563 -12.6438
3 -2.3925 9.99067 -6.24289
3 -9.98335 9.4822 -6.43913
1 -5.97421 12.6781 -0.115664
1 -6.40856 12.7108 5.9886
1 -5.89955 6.02782 -0.423442
4 -6.35545 18.089 6.15556
2 -9.35322 9.39054 -3.21132
2 -9.48168 15.7921 -3.40285
2 -9.33047 9.71706 2.86205
2 -9.35869 16.138 3.01112
3 -9.54357 12.5447 -3.19981
3 -6.15813 9.80509 -4.0386
3 -3.14776 12.4717 9.41098
3 -6.42045 15.3591 9.22465
3 -9.32954 12.8348 2.84205
3 -6.30517 9.43274 4.032
3 -3.22913 12.5561 3.3571
3 -6.21131 15.8072 2.88436
3 -9.32693 16.185 -0.175832
3 -3.01382 15.4666 -0.0662367
3 -2.26986 9.23685 6.06555
3 -9.83551 9.85607 5.99595
1 -6.13131 12.6176 12.1895
4 -6.4247 12.7494 18.1542
1 -6.22367 6.24594 12.7137
4 -6.39709 18.9442 17.8754
2 -9.28896 9.41802 9.21163
2 -9.52441 15.651 9.26402
2 -9.6872 9.45282 15.744
2 -9.70857 15.6675 15.5354
3 -9.79629 12.5233 9.25083
3 -6.19332 9.53365 8.5729
3 -9.5794 12.4712 15.7194
3 -6.33232 9.4678 15.7821
3 -3.45865 12.6741 15.2554
3 -6.54515 15.9129 15.4977
3 -9.43999 15.3028 12.4973
3 -3.47788 15.5204 12.3287
3 -3.21736 9.70193 19.0307
3 -9.34694 10.0035 19.2907
4 -0.202879 18.4363 -18.2264
3 3.00039 19.03 -15.9273
3 2.99633 15.4046 -18.978
3 -3.38749 15.7536 -18.9646
4 0.383259 18.4615 -12.3782
4 -0.180528 18.7084 -6.39532
1 0.029921 12.993 -12.5
2 -3.35039 16.2826 -15.7405
2 -3.1229 16.5927 -9.26453
3 -3.36592 19.4392 -16.4113
3 -0.255912 16.0076 -15.4248
3 3.04005 19.2925 -3.15248
3 -2.23125 19.832 -9.72176
3 0.0124792 15.7324 -9.15859
3 3.20681 19.3062 -9.56058
3 3.14217 16.0088 -6.2796
3 -3.33385 16.3379 -6.19511
4 0.0462606 18.1788 -0.0701111
4 -0.180554 18.7865 6.31235
1 0.0543586 12.9699 -0.545615
2 -3.32432 16.1752 -3.06615
2 -3.07637 15.958 3.13625
3 -2.93956 19.3854 -2.87046
3 -0.0221898 15.9147 -3.35201
3 3.08407 19.1049 9.64395
3 -3.00196 19.1824 2.49886
3 0.131163 15.6349 3.03364
3 3.81117 19.4145 2.65253
3 3.57395 16.1656 6.235
3 -3.26483 15.7069 6.28848
4 -0.346026 18.382 12.5241
4 -0.518304 18.3956 17.8832
1 -0.423586 12.272 12.2288
2 -3.25689 15.6276 9.23425
2 -3.36687 15.7856 15.3021
3 -3.18285 18.94 9.09422
3 -0.112311 15.8906 9.19018
3 -3.43639 19.1265 15.3384
3 -0.227459 15.5366 15.2908
3 2.45647 19.0122 15.2767
3 2.89775 16.3275 18.9523
3 -3.57782 16.1231 18.6009
4 6.56168 18.6852 -12.1257
4 6.05099 18.2727 -0.501983
4 5.8463 18.4228 12.2561
4 -18.4313 -12.0628 -18.8857
4 -17.8782 -6.07504 -18.6284
3 -15.8728 -12.4256 -15.3854
3 -18.7698 -9.29509 -16.1153
3 -15.802 -14.8974 -19.4683
4 -18.3967 -12.3961 -12.0792
4 -18.3708 -11.9251 -6.77246
4 -19.1789 -17.7719 -12.8644
4 -17.7367 -6.17845 -6.2232
3 -19.2031 -14.8803 -16.3019
3 -15.6706 -12.7852 -3.44311
3 -18.9858 -9.5101 -3.64598
3 -19.3617 -15.2072 -9.53064
3 -15.5545 -12.6371 -9.64604
3 -18.9684 -9.17497 -9.89648
3 -16.0643 -8.89147 -12.7828
3 -16.1778 -15.6253 -6.3723
4 -18.1776 -13.2221 0.114096
4 -17.9443 -12.5213 6.22349
4 -17.7976 -19.2764 -0.0755011
4 -17.8961 -6.12327 5.90067
3 -19.4705 -15.8863 -2.43157
3 -15.1207 -12.6441 9.34594
3 -18.8104 -8.9788 8.39822
3 -18.9028 -15.6005 3.43701
3 -15.4013 -12.714 3.04264
3 -18.6002 -9.11149 3.31313
3 -16.0412 -9.99358 -0.300134
3 -15.1051 -15.9038 6.17894
4 -18.4365 -12.6985 12.209
4 -18.4321 -11.927 18.3282
4 -18.765 -18.3213 13.0957
4 -18.7161 -6.00633 17.8311
3 -19.0819 -15.7322 9.3256
3 -19.453 -15.0308 15.4513
3 -15.4817 -12.5125 15.4931
3 -19.1947 -9.19363 15.659
3 -15.6032 -9.4353 12.2521
3 -15.2915 -14.775 19.1052
4 -12.3419 -6.10948 -18.2392
4 -12.4549 -0.0464415 -18.5616
3 -9.61185 -6.18403 -15.3805
3 -12.7481 -3.01276 -15.8083
3 -9.78724 -9.14235 -18.8365
3 -15.2045 -9.30794 -19.0244
1 -12.8344 -6.0259 -12.8287
1 -12.3797 -6.70712 -6.20003
1 -12.9117 -12.6985 -12.6036
1 -12.1593 -0.0817501 -6.28744
2 -15.4395 -9.27954 -15.8358
2 -15.9786 -2.90313 -16.0691
2 -15.8332 -9.17853 -9.53446
2 -15.675 -3.1091 -9.50111
3 -15.3196 -6.24064 -15.8184
3 -12.4895 -9.55988 -15.2657
3 -9.19248 -6.47266 -3.23573
3 -12.0036 -3.39409 -2.30128
3 -15.6968 -6.20615 -9.57998
3 -12.6805 -9.11566 -10.2169
3 -9.18945 -6.45654 -9.16162
3 -12.4249 -3.04249 -10.348
3 -16.0626 -3.27894 -12.9192
3 -9.10589 -2.88458 -12.8034
3 -9.97688 -9.79624 -6.25429
3 -15.2855 -9.2955 -6.43884
1 -12.0386 -6.60404 -0.136975
1 -12.437 -6.38285 5.77946
1 -12.0227 -12.3836 -0.0508965
1 -12.3461 0.247432 5.73734
2 -15.8166 -9.67695 -3.41434
2 -15.3332 -2.96576 -3.03904
2 -15.5415 -9.67022 2.76395
2 -15.4506 -3.07168 2.89913
3 -14.9575 -6.38505 -3.02131
3 -12.3212 -9.73378 -2.71543
3 -8.74988 -6.24269 9.63343
3 -12.5114 -3.50443 9.73582
3 -15.3564 -6.24068 2.71798
3 -12.2647 -9.25578 2.50991
3 -8.96344 -6.32183 2.625
3 -12.2945 -3.23482 2.101
3 -16.2543 -2.8542 -0.0775645
3 -8.3878 -3.30641 -0.186733
3 -9.04513 -8.78934 6.18627
3 -15.0683 -9.42647 6.02707
1 -12.0057 -6.51304 12.3507
4 -12.5224 -6.23186 17.87
1 -12.7268 -12.4706 12.4367
4 -12.3411 -0.407047 17.8292
2 -15.436 -9.26834 9.23994
2 -15.7164 -3.1514 9.0104
2 -15.8954 -9.39152 15.4513
2 -15.7152 -3.32775 15.1967
3 -15.2618 -6.2525 9.2009
3 -12.2642 -9.45823 9.51891
3 -15.5004 -6.3623 15.1672
3 -12.6695 -9.45877 15.5436
3 -9.11896 -6.21392 15.1839
3 -12.5297 -3.33002 14.8288
3 -15.9375 -3.62944 12.1644
3 -8.45876 -2.85529 12.1974
3 -9.59631 -9.11135 19.1081
3 -16.0106 -8.82069 18.7382
4 -5.67702 -0.0699427 -18.4096
4 -6.75072 6.38353 -18.4227
3 -3.17036 0.177707 -15.2114
3 -6.29594 3.2997 -16.2801
3 -2.74144 -3.03749 -18.5974
3 -9.25078 -3.315 -18.9957
1 -6.10671 0.0087685 -12.8708
1 -6.32208 0.577582 -6.02888
1 -6.5313 -6.38667 -12.4571
1 -5.46484 6.59133 -6.22411
2 -9.49473 -3.07737 -15.9833
2 -9.29933 3.2532 -15.9298
2 -9.46564 -3.1948 -9.6273
2 -9.28343 3.29844 -9.6263
3 -9.58601 0.0301514 -15.7986
3 -6.28046 -3.0532 -15.8017
3 -3.10457 -0.109453 -3.08426
3 -5.98743 3.37228 -3.4677
3 -9.42542 0.181453 -9.31002
3 -6.55921 -2.74958 -9.05442
3 -3.23444 0.0131112 -9.58674
3 -6.1195 3.57631 -9.04985
3 -9.01575 2.97027 -12.7939
3 -3.71366 3.48507 -12.6271
3 -2.40605 -2.85285 -6.05965
3 -9.86851 -3.3947 -6.11805
1 -6.37456 0.240591 -0.128344
1 -6.5849 -0.122364 6.01313
1 -5.89935 -6.42675 0.163349
1 -5.67379 6.13162 6.43606
2 -9.04261 -3.01449 -3.15677
2 -9.20177 3.2655 -3.2511
2 -9.3504 -3.14357 2.75429
2 -9.47016 3.39934 2.99366
3 -9.18274 0.0101655 -3.03308
3 -6.20739 -3.35344 -4.14913
3 -3.25675 -0.318105 9.16039
3 -6.40177 2.69915 8.65911
3 -9.45216 0.0668336 2.67946
3 -6.21122 -3.20717 3.49832
3 -3.44105 0.017884 3.59316
3 -6.28445 3.07362 3.72577
3 -8.99516 3.26807 0.0015738
3 -3.50089 2.97882 0.00582579
3 -2.19645 -3.48861 6.12788
3 -10.057 -3.25361 5.88779
1 -5.79376 -0.0271658 12.6289
4 -5.93839 -0.476901 18.6608
1 -6.28979 -6.69244 12.3552
4 -6.18855 6.50054 18.2119
2 -9.21902 -3.28422 8.9266
2 -9.59785 3.0016 9.19296
2 -9.24151 -2.92984 15.1778
2 -9.55005 3.34995 15.409
3 -9.70261 -0.137771 9.06427
3 -6.19364 -3.30922 8.14533
3 -9.47647 0.107032 15.2567
3 -6.01973 -2.75786 15.7814
3 -2.72328 -0.033664 15.5105
3 -6.37897 3.15224 15.6555
3 -8.84132 3.39875 12.1817
3 -3.26956 3.05403 12.4439
3 -2.82594 -3.79122 18.7174
3 -9.61558 -3.29552 18.2426
4 0.339319 6.4351 -18.7231
4 -0.4153 12.6535 -18.0713
3 2.96617 6.31077 -15.1718
3 -0.253913 9.53261 -14.87
3 2.95078 2.88912 -18.5766
3 -2.77658 3.03625 -18.8322
1 -0.200492 6.40972 -12.2808
1 -0.0607061 6.69333 -6.09425
1 -0.152912 -0.395975 -12.3208
1 -0.207103 13.1327 -6.15362
2 -3.27106 3.35352 -15.7262
2 -3.15628 9.64276 -15.8358
2 -3.08196 3.40597 -9.56758
2 -3.10455 9.78983 -9.51839
3 -3.117 6.39854 -15.9998
3 -0.206623 3.28533 -14.7676
3 2.88128 6.35962 -3.16588
3 -0.102636 9.61293 -2.73187
3 -2.66409 6.5538 -9.22885
3 -0.0637407 3.15628 -10.2606
3 2.98641 6.50876 -9.03599
3 0.0727554 9.99614 -10.0449
3 -3.9236 9.61847 -12.4344
3 3.38351 9.58133 -12.3902
3 2.45192 3.03686 -6.2458
3 -2.35388 3.17228 -6.51752
1 0.0801056 6.34509 -0.159124
1 -0.127949 6.03457 5.85551
1 -0.523872 -0.176817 -0.474599
1 -0.129561 12.8319 5.86536
2 -2.97455 3.13043 -3.33176
2 -3.20754 9.75392 -3.08068
2 -3.19704 3.20504 3.17232
2 -3.513 9.57013 3.10017
3 -2.78189 6.52746 -2.96103
3 0.245877 3.16271 -2.58322
3 3.58014 6.47404 8.94056
3 -0.0546054 8.83036 9.50857
3 -2.94061 6.40231 2.84692
3 0.0158789 2.72846 2.50462
3 2.94203 6.19012 3.10559
3 -0.0446829 9.80465 1.94521
3 -3.91765 9.37858 -0.186558
3 3.7666 9.7299 -0.11212
3 2.66068 2.97391 6.09017
3 -2.72524 3.33459 6.3277
1 -0.0802007 5.8536 12.3328
4 0.0841488 6.57026 17.9837
1 -0.308479 0.153448 12.2601
4 -0.424869 12.4913 18.0343
2 -3.34321 2.92479 9.20073
2 -3.12909 9.17053 9.123
2 -3.3522 3.08109 15.748
2 -3.27297 9.54092 15.6294
3 -3.61219 6.14738 9.79337
3 -0.192015 2.83237 9.45089
3 -3.10038 6.29299 15.2938
3 -0.205099 3.36917 15.1906
3 3.06421 6.14303 15.3725
3 -0.226746 9.70642 15.3125
3 -3.45119 9.47707 12.3273
3 3.51349 9.85392 12.3117
3 2.86181 3.34232 18.9054
3 -2.88691 2.96846 18.8838
4 5.90049 12.4042 -18.366
4 5.68087 18.3496 -18.9977
3 8.76035 12.4446 -15.5393
3 6.10738 15.7491 -15.8092
3 9.17074 9.56804 -18.6871
3 2.47587 9.68315 -18.9874
1 6.12969 12.5868 -12.3313
1 6.05751 12.7489 -6.45955
1 6.09717 6.70644 -12.302
4 6.18495 18.3987 -6.12933
2 2.89501 9.50102 -15.7977
2 2.976 15.8446 -15.7805
2 3.07443 9.6456 -9.32184
2 3.34753 16.0281 -9.38041
3 2.99784 12.5737 -15.6109
3 6.09301 8.98503 -15.699
3 9.14249 12.523 -2.92121
3 6.37339 15.7911 -3.45834
3 3.16846 12.7758 -9.50109
3 6.25621 9.35416 -8.54013
3 9.06399 12.6355 -9.5141
3 6.304 15.7326 -9.11818
3 3.32574 15.6058 -12.6225
3 9.37875 15.7536 -12.5172
3 10.2003 9.20597 -6.15933
3 2.16384 10.0076 -6.44126
1 6.37581 12.3646 0.203576
1 6.42732 12.7841 5.80354
1 6.11028 6.21017 0.687524
4 6.93701 18.6065 6.04373
2 3.17154 9.64387 -3.37743
2 3.09474 15.889 -3.10907
2 2.98387 9.43339 2.83838
2 3.60665 16.0866 3.04333
3 3.04239 12.8106 -3.43618
3 6.33532 9.57082 -3.98674
3 9.68352 12.8105 9.49683
3 6.3282 15.4153 9.43015
3 3.62638 12.7314 2.91238
3 6.24333 9.12705 3.69471
3 9.23681 12.543 3.06875
3 6.62267 15.8702 3.20294
3 3.03595 15.8087 -0.00170667
3 9.40719 15.7235 -0.0117444
3 10.0649 9.712 6.38384
3 2.19939 9.37993 5.95411
1 6.36818 12.9711 12.5863
4 6.40022 12.7774 18.3482
1 6.52272 5.92749 12.3908
4 5.73453 18.8395 17.9417
2 3.25254 9.51176 9.15045
2 3.02842 15.6234 9.16581
2 3.07596 9.57066 15.5398
2 3.0654 15.8459 15.5135
3 2.60315 12.4808 8.86343
3 6.31131 9.93843 8.39624
3 3.27715 12.7697 15.9112
3 6.10635 9.56677 16.1115
3 9.2996 12.5223 15.6034
3 6.15181 15.8611 15.3381
3 2.79492 15.4338 12.4157
3 9.5447 15.524 12.6591
3 9.60388 9.18541 18.7447
3 2.82819 9.30479 19.0987
4 12.4696 18.2645 -18.595
3 15.0082 19.0862 -15.1507
3 16.1262 15.2131 -18.5584
3 9.19396 16.0029 -18.9621
4 12.5677 18.0505 -12.0628
4 12.3958 18.446 -6.15042
1 12.471 12.4943 -12.4691
2 9.10672 15.6678 -15.8554
2 9.29319 15.9112 -9.27533
3 9.32129 18.9837 -15.3997
3 12.4213 15.3829 -15.8744
3 16.0075 19.0184 -3.04736
3 9.46915 19.0719 -9.57783
3 12.3683 15.0948 -9.48286
3 15.7168 18.712 -9.32975
3 15.3402 15.4521 -6.33535
3 9.40872 15.3524 -6.156
4 12.9686 17.9475 0.287204
4 12.6758 18.5972 6.4891
1 12.8027 12.6535 0.0206724
2 9.38268 15.6149 -3.07344
2 9.86722 15.7921 3.23937
3 9.57164 18.9362 -3.41831
3 12.4896 15.5518 -3.04093
3 16.1274 19.039 8.99747
3 10.3883 19.0127 3.44959
3 12.9794 15.287 3.0412
3 16.692 18.9505 3.32832
3 15.7243 15.7588 6.38918
3 9.32895 15.6851 6.37201
4 12.3699 18.4019 12.5382
4 12.7653 18.529 17.9741
1 12.3114 12.5771 12.3972
2 9.48209 16.011 9.37834
2 9.28704 15.7169 15.8275
3 9.14533 19.1701 9.28905
3 12.5847 16.0214 9.31303
3 9.24862 18.9713 15.9739
3 12.4723 15.3807 15.5861
3 15.7837 18.7331 15.4527
3 15.5438 15.1899 18.7016
3 9.68277 15.6494 19.0736
4 18.6589 17.8146 -12.5324
4 18.6976 18.4603 -0.196941
4 18.353 18.3872 12.2608
4 -19.532 -17.3399 -6.18566
4 -18.0551 -18.2595 6.31901
4 -13.338 -18.03 -18.7306
4 -12.3691 -12.6631 -18.5852
3 -9.74371 -18.9486 -16.3395
3 -12.9534 -15.3603 -16.059
4 -12.8591 -18.5425 -12.289
4 -12.512 -18.7389 -5.78086
1 -12.9435 -12.6243 -6.39847
2 -16.106 -15.4312 -15.8155
2 -16.0952 -15.973 -9.50878
3 -15.7439 -19.3523 -15.3295
3 -9.06961 -19.3861 -2.88769
3 -12.4623 -16.0822 -2.79339
3 -16.8829 -18.9947 -8.92337
3 -9.15585 -19.3431 -10.0414
3 -12.8833 -16.0916 -9.4431
3 -15.7777 -15.6074 -12.6203
3 -9.63563 -15.4746 -12.7023
4 -11.87 -19.1343 -0.0416288
4 -11.8775 -18.2229 5.94887
1 -12.4144 -12.5284 5.7773
2 -15.9788 -16.0861 -3.17744
2 -15.3437 -15.9515 3.06538
3 -15.9157 -19.0861 -3.69565
3 -9.06851 -18.9466 9.80453
3 -12.7558 -15.8236 9.7703
3 -15.3229 -19.1314 3.0058
3 -9.25908 -19.1333 2.87136
3 -12.362 -15.6524 2.6551
3 -15.3971 -16.0072 -0.0732605
3 -8.99266 -15.8627 -0.169734
4 -12.3849 -18.2302 12.629
4 -12.3209 -18.4742 18.3932
4 -12.4253 -12.476 18.0203
2 -15.808 -15.8242 9.39019
2 -16.1582 -15.5232 16.095
3 -16.1525 -19.1377 9.93133
3 -15.4136 -19.0804 15.8087
3 -9.36398 -18.7411 15.7808
3 -12.6324 -15.7462 15.8246
3 -15.961 -15.8153 12.5909
3 -9.25723 -15.5005 12.6427
4 -6.16467 -12.184 -18.0689
4 -6.37277 -6.4488 -18.3718
3 -3.30611 -12.2146 -15.5575
3 -6.29499 -9.24502 -15.6056
3 -3.44082 -15.1885 -19.1942
3 -9.70962 -15.6963 -19.1516
1 -6.369 -12.4317 -12.4999
1 -6.40685 -13.2388 -6.21401
4 -6.26011 -18.1692 -12.8941
1 -6.51592 -6.66258 -6.3273
2 -9.81287 -15.5691 -16.0118
2 -9.39428 -9.26699 -15.5899
2 -9.52099 -16.1221 -9.65265
2 -9.61148 -9.63357 -9.45323
3 -9.4255 -12.3706 -15.9325
3 -6.40662 -15.5403 -15.5564
3 -2.70131 -12.8993 -3.33726
3 -6.06353 -10.1168 -4.02398
3 -9.72018 -12.8999 -9.30438
3 -6.44164 -15.3175 -9.83479
3 -3.01469 -12.4763 -9.58471
3 -6.36572 -9.97316 -8.76968
3 -9.01848 -9.31025 -12.3889
3 -3.50806 -8.88596 -12.3681
3 -3.21614 -16.1716 -6.24833
3 -9.3111 -16.5958 -6.46082
1 -5.81996 -13.0736 -0.403441
1 -5.58982 -12.766 6.20028
4 -5.91863 -18.4136 0.189323
1 -5.99936 -6.62332 6.05008
2 -9.09278 -16.2771 -3.22244
2 -9.26775 -9.80188 -3.13725
2 -9.0462 -15.5895 3.10728
2 -8.8851 -9.38231 3.04699
3 -8.92218 -12.9764 -3.0669
3 -6.05217 -15.9573 -2.9746
3 -2.51829 -12.924 8.978
3 -5.93416 -10.0743 9.2664
3 -9.36924 -12.3902 3.34717
3 -5.98975 -15.3564 3.02427
3 -2.73226 -12.7695 2.61205
3 -5.76648 -9.70937 3.49108
3 -8.23268 -9.88558 -0.178915
3 -3.59434 -9.49772 -0.238701
3 -2.91563 -15.8483 6.30697
3 -8.74185 -15.7212 6.29128
1 -6.28278 -12.7302 12.817
4 -6.34235 -12.1471 18.7355
4 -6.23773 -18.4214 12.764
4 -6.15211 -6.47752 18.1836
2 -9.26291 -15.843 9.62243
2 -9.05576 -9.55148 9.0671
2 -9.33182 -15.4079 15.9293
2 -9.46392 -9.26791 15.8783
3 -9.96067 -12.8771 8.98577
3 -6.10593 -15.1978 9.6984
3 -8.89429 -12.298 15.9961
3 -6.3665 -15.4914 15.7124
3 -3.36209 -12.5784 15.9728
3 -6.33436 -9.25342 15.2482
3 -9.24143 -9.95584 12.5044
3 -3.05751 -9.7921 12.4115
3 -3.06817 -16.3868 19.349
3 -9.55075 -15.5775 19.058
4 -0.227282 -5.96885 -18.0634
4 0.1975 0.0187319 -18.0332
3 2.82956 -6.21673 -15.2604
3 -0.127432 -3.00142 -15.1599
3 3.03586 -9.86235 -18.8442
3 -3.07565 -9.09941 -18.6201
1 -0.392126 -6.19175 -12.6027
1 -0.120706 -6.14824 -6.50759
1 0.195126 -12.6566 -12.3157
1 0.0918969 0.0421241 -6.50757
2 -3.16932 -9.0487 -15.5573
2 -3.18083 -2.85611 -15.371
2 -3.12355 -9.36911 -9.34735
2 -3.27551 -3.13135 -9.15933
3 -3.26224 -6.00432 -15.5062
3 -0.0862504 -9.27858 -15.0624
3 3.2962 -6.5138 -3.33131
3 -0.174804 -3.49421 -2.37025
3 -3.44469 -6.39674 -8.817
3 0.0790146 -9.41235 -10.1379
3 3.06491 -6.32611 -9.52536
3 -0.0921005 -3.26297 -9.7144
3 -3.67467 -3.33382 -12.2788
3 3.60542 -3.07505 -12.5203
3 2.54198 -9.37274 -6.14356
3 -2.02678 -9.72348 -6.29269
1 -0.094029 -6.64245 -0.13644
1 0.340515 -6.39552 6.61049
1 0.285099 -13.2549 -0.0501478
1 -0.220321 0.276783 6.01482
2 -2.96726 -9.51576 -3.24397
2 -3.17716 -3.36019 -3.03247
2 -2.59536 -9.3532 2.74085
2 -3.00259 -3.05488 3.19863
3 -3.27139 -6.53006 -3.21983
3 0.187081 -9.78052 -2.332
3 3.37899 -6.31395 8.97546
3 -0.0622235 -3.24129 10.0418
3 -3.12785 -6.22119 2.96793
3 0.345418 -10.08 2.03499
3 3.28187 -6.3874 3.74828
3 0.00400547 -2.66769 2.35857
3 -3.83531 -2.91735 0.0287326
3 3.66705 -3.47409 0.133814
3 2.68814 -10.2142 6.23528
3 -2.17222 -9.53224 6.09106
1 -0.0905692 -6.33934 12.2946
4 0.0697093 -6.25162 17.7928
1 -0.119962 -12.6887 12.484
4 0.164482 0.0873781 18.2122
2 -2.76057 -9.70484 9.22892
2 -3.17512 -3.5042 9.32627
2 -2.88871 -9.49074 15.6433
2 -2.61169 -3.22217 15.5641
3 -3.125 -6.52473 9.22435
3 0.261646 -9.49743 9.95897
3 -3.1702 -6.41973 15.2186
3 0.143118 -9.22655 15.4411
3 3.36519 -6.43212 15.3934
3 0.357573 -3.30755 14.7218
3 -3.41057 -3.29645 12.4801
3 4.02648 -3.75437 12.4229
3 3.49998 -9.19739 18.9334
3 -3.05287 -9.10678 18.7368
4 5.94687 -0.145437 -18.4379
4 5.58954 5.92624 -18.1039
3 9.26511 -0.160605 -15.5068
3 6.1372 2.89207 -15.6297
3 9.50576 -3.13117 -18.9412
3 2.91522 -3.22581 -18.989
1 6.2774 -0.19337 -12.6608
1 5.94357 -0.260425 -6.42978
1 5.97483 -6.41294 -12.6155
1 6.60319 6.20533 -6.07412
2 2.91586 -3.04414 -15.5732
2 3.08136 3.19186 -15.4569
2 2.96944 -3.14799 -9.37962
2 3.13111 3.23685 -9.28217
3 3.14846 0.0262057 -15.1624
3 6.16585 -3.27828 -15.923
3 9.36186 -0.273678 -3.02092
3 6.23343 2.70265 -3.7172
3 3.07257 -0.14982 -9.4863
3 6.1475 -3.4686 -8.93718
3 8.86985 -0.0330077 -9.1088
3 6.22039 3.25368 -8.63529
3 3.72587 3.57583 -12.1646
3 9.25104 2.85549 -12.3501
3 9.89158 -3.06012 -6.10281
3 2.41721 -2.97027 -6.31943
1 6.18525 -0.23007 -0.357399
1 5.73205 0.178529 6.28039
1 6.54814 -6.3258 0.128912
1 6.70962 6.57607 6.39557
2 2.97234 -3.23675 -2.93259
2 3.18326 3.20174 -3.08217
2 3.10365 -2.98364 3.37054
2 3.12725 3.03495 2.87749
3 2.84471 -0.0684412 -2.84524
3 6.05533 -3.29921 -3.78787
3 9.70989 0.0574234 9.87089
3 6.14625 2.97683 9.40894
3 3.53301 0.0454343 2.5863
3 6.14927 -3.40066 4.08282
3 8.79898 0.0807044 2.86386
3 6.16829 3.47744 3.68914
3 3.97802 3.33386 -0.0783691
3 8.86526 3.30452 0.109577
3 10.2761 -3.358 6.45863
3 2.58013 -2.72403 6.35721
1 6.2193 -0.0338135 12.6017
4 6.10721 0.192107 18.4694
1 6.81367 -6.77959 12.5125
4 5.81564 6.44874 18.5156
2 3.1704 -3.07029 9.35616
2 2.95781 3.11834 9.16372
2 3.40453 -3.23661 15.4494
2 2.88146 3.01198 15.5987
3 3.1189 0.0518352 9.39706
3 6.34551 -3.16373 8.58343
3 2.97297 -0.116653 15.1435
3 6.26326 -2.86466 16.1968
3 9.34266 -0.0725358 15.9149
3 6.16372 3.14397 15.5071
3 3.18337 3.50167 12.353
3 9.28526 2.86679 12.7537
3 10.07 -3.31319 18.7187
3 2.8303 -3.30969 18.694
4 12.4131 6.12882 -18.0331
4 12.4211 12.0772 -18.2288
3 15.1008 6.17048 -15.3211
3 12.404 9.21736 -15.0173
3 14.8912 3.12529 -18.9596
3 9.37557 3.11815 -18.8678
1 11.9794 5.95717 -12.4109
1 12.4794 5.68378 -6.29833
1 12.1583 0.0169204 -12.4992
1 12.4567 12.6545 -6.42694
2 9.19445 2.96827 -15.7927
2 9.01104 9.35123 -15.5106
2 9.31226 3.04628 -9.30763
2 9.2353 9.57517 -9.20948
3 9.31714 6.08937 -15.3928
3 12.2301 2.73522 -15.5983
3 15.6307 6.21361 -3.41952
3 12.4437 9.58111 -2.73221
3 9.51575 6.19719 -9.26405
3 12.5433 2.58638 -9.41512
3 14.9716 6.11604 -9.70861
3 12.3033 9.68076 -9.7835
3 9.21112 9.42159 -12.375
3 15.7677 9.38555 -12.5072
3 15.6631 2.74974 -6.18339
3 9.82411 2.88351 -6.20829
1 12.2844 6.10802 0.149475
1 12.5539 6.68235 6.79536
1 12.0629 -0.0154396 -0.14622
1 12.4984 13.0122 6.38678
2 9.2997 2.93779 -3.00802
2 9.36441 9.31062 -3.21637
2 9.38679 3.20929 3.41257
2 9.44358 9.42373 3.24559
3 9.62772 6.31006 -3.23259
3 12.5046 3.13611 -2.74663
3 15.3199 6.29001 9.63896
3 12.4641 9.32566 10.1089
3 9.34559 6.24584 3.33489
3 12.5042 3.01685 2.82331
3 15.0341 6.41059 3.39507
3 12.4197 9.58468 2.57068
3 8.725 9.05706 0.0581964
3 15.5435 9.03186 -0.109863
3 15.6326 3.18107 6.55186
3 9.47907 2.90563 6.52385
1 12.3927 6.15435 12.8663
4 12.0434 6.30604 18.1562
1 12.7466 0.0345054 12.3427
4 12.1593 12.168 18.3398
2 9.31964 3.02144 9.61204
2 9.20741 9.67753 9.4282
2 9.21935 3.06427 16.0721
2 9.23741 9.4162 15.5824
3 9.32029 6.27922 9.3201
3 12.5711 3.26633 9.75333
3 9.09888 6.28012 15.5393
3 12.572 2.94939 15.579
3 15.5532 6.19659 15.5125
3 12.3636 9.09077 15.4996
3 8.9258 9.5581 12.4839
3 15.9819 9.47281 12.6842
3 15.1154 3.56826 19.0935
3 9.0673 3.60767 19.4841
4 18.3674 12.282 -17.9903
3 19.0382 15.313 -15.2719
3 15.5172 9.08981 -18.6705
4 18.4164 12.3209 -12.4746
4 18.4161 12.3634 -6.25573
4 17.8536 5.86586 -12.6696
4 18.1571 18.108 -6.32299
2 15.741 9.1685 -15.5392
2 15.5662 15.7707 -15.6374
2 15.4065 9.18119 -9.41943
2 15.534 15.3567 -9.43585
3 15.3554 12.3596 -15.4577
3 19.0198 8.97035 -15.9243
3 18.7422 15.4134 -3.21034
3 15.4548 12.3147 -9.24748
3 18.7725 9.10425 -9.48018
3 18.722 15.2808 -9.55534
3 15.2572 15.5548 -12.5129
3 15.3314 9.314 -6.27335
4 18.193 12.113 -0.11985
4 18.3557 12.3489 6.64145
4 18.457 6.07959 -0.747611
4 19.1071 17.7724 6.48055
2 15.8238 9.37588 -3.24199
2 15.6741 15.6528 -3.10088
2 15.4938 9.48641 3.19136
2 16.077 15.8929 3.19649
3 15.7118 12.4547 -3.22113
3 19.0728 9.58694 -3.11615
3 19.1267 15.5481 9.61781
3 15.9449 12.5972 3.08726
3 18.8186 9.61143 3.11997
3 19.3927 15.4227 3.58741
3 15.9297 15.5938 0.0141545
3 15.1478 9.67068 6.40336
4 18.4256 12.7667 12.5755
4 18.9105 12.7265 18.0221
4 18.3967 6.40717 12.3216
2 15.7671 9.38134 9.56446
2 15.962 15.7733 9.57519
2 15.761 9.27795 15.8579
2 15.7527 15.652 15.5895
3 15.3415 12.4576 9.45532
3 19.0719 9.71619 9.51892
3 15.7683 12.4237 15.4993
3 18.8264 9.27595 16.1641
3 19.0076 15.7271 14.9723
3 15.2805 15.4509 12.4648
3 15.2655 9.15166 18.8996
4 -6.49234 -18.0766 -18.8392
4 -5.93095 -19.0277 -6.25893
4 -5.84234 -18.1376 6.32003
4 -6.56693 -18.6413 18.4907
4 -0.331438 -17.6384 -18.8863
4 0.132513 -12.2903 -18.1963
3 3.04009 -19.1923 -15.9264
3 -0.205578 -15.6356 -15.4942
4 0.0566585 -18.4228 -12.6228
4 0.0342576 -18.3742 -6.89843
1 0.147427 -12.94 -6.36061
2 -3.19371 -15.3043 -15.942
2 -3.32101 -15.592 -9.6149
3 -3.33717 -18.7806 -16.0569
3 3.84669 -19.3376 -3.09029
3 0.191685 -16.2983 -3.12067
3 -3.10828 -18.814 -9.66111
3 3.07523 -19.0947 -9.34537
3 -0.196594 -15.6143 -9.56459
3 -3.27442 -15.4328 -12.6314
3 2.89588 -15.8137 -12.3576
4 0.22121 -18.7771 0.0256483
4 -0.0130223 -18.4344 6.24334
1 0.0675463 -13.0773 5.79096
2 -2.93824 -16.3613 -3.15591
2 -2.87828 -15.8797 3.11347
3 -3.37137 -19.4779 -3.22106
3 3.47382 -19.3669 9.55362
3 0.311804 -15.9848 9.69826
3 -3.01802 -19.0914 3.45
3 3.33706 -19.4145 3.40728
3 0.28256 -15.9905 2.98265
3 -2.83117 -16.0864 -0.0698115
3 3.41817 -16.262 0.0495368
4 0.190518 -18.5702 12.7148
4 0.100488 -18.6555 18.4695
4 -0.324242 -12.4879 18.4169
2 -2.88611 -16.106 9.57946
2 -3.24973 -15.9062 15.8891
3 -3.19439 -19.2939 9.37585
3 -3.10846 -19.2872 15.7754
3 3.01214 -19.4467 15.7076
3 -0.186163 -15.6151 15.9235
3 -3.34875 -15.5892 12.6499
3 3.17284 -15.8861 12.7042
4 6.22645 -12.6788 -18.1794
4 6.6549 -6.21372 -18.549
3 9.08073 -12.8942 -14.9241
3 6.12852 -9.67419 -15.7357
3 9.55902 -15.8141 -18.9781
3 2.87714 -15.4043 -18.6419
1 6.32359 -12.731 -12.3226
1 6.65192 -12.7017 -6.26817
4 5.96253 -18.3857 -12.1975
1 5.6851 -6.45732 -6.537
2 2.87978 -16.0393 -15.5255
2 3.00668 -9.3333 -15.6174
2 3.05835 -15.7894 -9.25245
2 3.14836 -9.4572 -9.3298
3 2.79353 -12.5149 -15.4555
3 5.98727 -15.545 -15.3856
3 9.71079 -12.6958 -3.18906
3 6.52424 -9.86395 -3.57564
3 2.91514 -12.5351 -9.27409
3 6.35314 -15.6276 -9.1385
3 9.72876 -12.6712 -9.17821
3 6.17367 -9.76236 -8.72991
3 3.63668 -9.7905 -12.5436
3 8.68808 -9.42042 -12.154
3 9.56589 -15.9016 -6.23197
3 3.16622 -15.6982 -6.12969
1 6.19755 -12.8326 -0.483471
1 6.60091 -12.618 6.22345
4 6.52563 -18.8523 0.236125
1 6.67246 -6.47888 6.68296
2 3.28741 -16.1763 -3.12376
2 3.18096 -9.6652 -3.03716
2 3.40692 -16.1568 3.02084
2 3.44172 -9.39874 3.08157
3 2.90282 -12.7711 -3.02636
3 6.40397 -15.6386 -3.24907
3 9.86221 -12.9473 9.54488
3 6.46671 -9.82808 9.07129
3 3.47215 -12.9679 3.04081
3 6.66296 -15.9955 3.78758
3 9.79835 -12.8996 3.25242
3 6.48341 -9.36935 4.22963
3 4.10506 -9.51987 0.149224
3 8.51814 -9.75582 0.235697
3 9.69075 -15.7892 6.43654
3 3.01448 -15.8728 6.16122
1 6.29955 -12.8009 12.2262
4 6.33749 -12.8199 18.5852
4 6.79706 -18.8664 12.6484
4 5.98986 -6.2775 18.5985
2 3.36622 -16.1955 9.54805
2 3.28928 -9.7601 9.2469
2 3.00059 -15.8077 15.9081
2 3.25244 -9.63507 15.7004
3 3.11347 -13.0195 9.61473
3 6.42246 -15.4865 9.24868
3 3.09945 -12.7509 15.643
3 6.15403 -15.6223 15.711
3 9.4258 -12.6127 16.0418
3 6.43054 -9.3604 15.8881