1307
 Atoms. Timestep: 410
4 -18.1445 17.9899 -12.4395
4 -18.3285 17.6714 -4.06714e-14
4 -18.1445 17.9899 12.4395
4 -18.1672 12.4284 -18.2237
3 -15.3567 12.4124 -15.515
3 -18.7964 15.1063 -15.2131
3 -15.4951 9.35195 -18.9532
4 -17.9109 12.2956 -12.325
4 -17.8181 12.2283 -6.24979
4 -18.1147 6.26352 -12.6421
4 -18.2025 17.7673 -6.24195
3 -18.755 9.25597 -15.6271
3 -14.9273 12.3672 -3.14713
3 -18.6133 15.0549 -3.15366
3 -18.6418 9.62455 -9.39752
3 -14.9362 12.3241 -9.41777
3 -18.6143 15.1582 -9.35481
3 -15.2639 15.3537 -12.5022
3 -15.2223 9.1916 -6.29053
4 -17.8088 12.3157 -5.03452e-14
4 -17.8181 12.2283 6.24979
4 -18.2076 6.451 -4.94953e-14
4 -18.2025 17.7673 6.24195
3 -18.646 9.70195 -3.01184
3 -14.9362 12.3241 9.41777
3 -18.6143 15.1582 9.35481
3 -18.646 9.70195 3.01184
3 -14.9273 12.3672 3.14713
3 -18.6133 15.0549 3.15366
3 -15.177 15.3405 2.38506e-13
3 -15.2223 9.1916 6.29053
4 -17.9109 12.2956 12.325
4 -18.1672 12.4284 18.2237
4 -18.1147 6.26352 12.6421
3 -18.6418 9.62455 9.39752
3 -18.755 9.25597 15.6271
3 -15.3567 12.4124 15.515
3 -18.7964 15.1063 15.2131
3 -15.2639 15.3537 12.5022
3 -15.4951 9.35195 18.9532
4 -12.4652 18.1697 -18.2664
3 -9.31934 18.7696 -15.6004
3 -9.30593 15.5376 -18.9413
3 -15.2341 15.2062 -18.9231
4 -12.1917 18.1309 -12.5494
4 -11.8951 18.1818 -6.31574
1 -12.3364 12.2958 -12.6698
2 -15.6272 15.6194 -15.7119
2 -15.4216 15.4819 -9.37523
3 -15.2051 18.7978 -15.2678
3 -12.4102 15.3703 -15.5657
3 -8.86654 18.6062 -3.18818
3 -15.681 18.7071 -9.31469
3 -12.3065 15.7727 -9.40768
3 -8.87957 18.5518 -9.3
3 -9.20074 15.083 -6.29244
3 -15.165 15.2942 -6.25989
4 -12.0165 18.2574 -5.44145e-14
4 -11.8951 18.1818 6.31574
1 -12.3458 12.3011 -9.65639e-14
2 -15.4294 15.5163 -3.13374
2 -15.4294 15.5163 3.13374
3 -15.8873 18.7054 -3.06543
3 -12.3232 15.8821 -3.13888
3 -8.87957 18.5518 9.3
3 -15.8873 18.7054 3.06543
3 -12.3232 15.8821 3.13888
3 -8.86654 18.6062 3.18818
3 -9.20074 15.083 6.29244
3 -15.165 15.2942 6.25989
4 -12.1917 18.1309 12.5494
4 -12.4652 18.1697 18.2664
1 -12.3364 12.2958 12.6698
2 -15.4216 15.4819 9.37523
2 -15.6272 15.6194 15.7119
3 -15.681 18.7071 9.31469
3 -12.3065 15.7727 9.40768
3 -15.2051 18.7978 15.2678
3 -12.4102 15.3703 15.5657
3 -9.31934 18.7696 15.6004
3 -9.30593 15.5376 18.9413
3 -15.2341 15.2062 18.9231
4 -6.19397 17.8615 -12.3291
4 -6.20416 17.8345 -4.27964e-14
4 -6.19397 17.8615 12.3291
4 -18.2306 0.0581626 -18.1745
4 -18.1161 6.2532 -18.3724
3 -15.3745 0.0534798 -15.5119
3 -18.7794 3.24754 -15.6678
3 -15.6033 -2.99311 -18.9232
4 -17.8314 0.00130017 -12.2368
4 -17.6927 -0.0243605 -6.21857
4 -18.0763 -6.0291 -12.534
4 -18.1908 5.75292 -6.26376
3 -18.7441 -3.07667 -15.5338
3 -14.7961 0.0853827 -3.16041
3 -18.5884 2.69043 -3.29897
3 -18.5018 -2.7062 -9.32963
3 -14.6649 0.0273162 -9.46677
3 -18.5181 2.63844 -9.20031
3 -15.3848 3.17572 -12.5635
3 -15.1374 -3.08395 -6.26402
4 -17.8242 0.0500509 -1.57163e-14
4 -17.6927 -0.0243605 6.21857
4 -18.0584 -5.7784 1.23696e-14
4 -18.1908 5.75292 6.26376
3 -18.4897 -2.73218 -3.04321
3 -14.6649 0.0273162 9.46677
3 -18.5181 2.63844 9.20031
3 -18.4897 -2.73218 3.04321
3 -14.7961 0.0853827 3.16041
3 -18.5884 2.69043 3.29897
3 -15.386 3.224 1.30241e-13
3 -15.1374 -3.08395 6.26402
4 -17.8314 0.00130017 12.2368
4 -18.2306 0.0581626 18.1745
4 -18.0763 -6.0291 12.534
4 -18.1161 6.2532 18.3724
3 -18.5018 -2.7062 9.32963
3 -18.7441 -3.07667 15.5338
3 -15.3745 0.0534798 15.5119
3 -18.7794 3.24754 15.6678
3 -15.3848 3.17572 12.5635
3 -15.6033 -2.99311 18.9232
4 -12.3048 6.21148 -18.3876
4 -12.3295 12.3342 -18.3307
3 -9.27051 6.21846 -15.7295
3 -12.4024 9.29496 -15.697
3 -9.46899 3.11655 -19.0876
3 -15.5227 3.08593 -18.9424
1 -12.2605 6.25482 -12.7792
1 -12.2254 6.14436 -6.29261
1 -12.2844 0.0829667 -12.7882
1 -12.2793 12.1824 -6.29883
2 -15.5763 3.14338 -15.7202
2 -15.5611 9.32846 -15.727
2 -15.3212 3.09229 -9.41081
2 -15.432 9.22482 -9.41485
3 -15.3369 6.2315 -15.6355
3 -12.4121 3.14031 -15.6485
3 -8.5755 6.21944 -3.30555
3 -12.3298 8.70996 -3.21375
3 -15.8797 6.15605 -9.40766
3 -12.2433 3.86484 -9.63588
3 -8.44672 6.14919 -9.54999
3 -12.2931 8.60124 -9.47886
3 -15.2914 9.2399 -12.5631
3 -9.2992 9.2524 -12.6623
3 -9.40398 3.08616 -6.3467
3 -14.9888 3.06929 -6.28794
1 -12.394 6.30931 -8.6858e-14
1 -12.2254 6.14436 6.29261
1 -12.3872 0.416347 -3.43396e-14
1 -12.2793 12.1824 6.29883
2 -15.4248 3.13874 -3.15844
2 -15.4717 9.28657 -3.15287
2 -15.4248 3.13874 3.15844
2 -15.4717 9.28657 3.15287
3 -15.8342 6.20955 -3.14426
3 -12.292 3.74358 -2.99068
3 -8.44672 6.14919 9.54999
3 -12.2931 8.60124 9.47886
3 -15.8342 6.20955 3.14426
3 -12.292 3.74358 2.99068
3 -8.5755 6.21944 3.30555
3 -12.3298 8.70996 3.21375
3 -15.1771 9.29171 2.43009e-13
3 -9.38061 9.21223 2.28041e-13
3 -9.40398 3.08616 6.3467
3 -14.9888 3.06929 6.28794
1 -12.2605 6.25482 12.7792
4 -12.3048 6.21148 18.3876
1 -12.2844 0.0829667 12.7882
4 -12.3295 12.3342 18.3307
2 -15.3212 3.09229 9.41081
2 -15.432 9.22482 9.41485
2 -15.5763 3.14338 15.7202
2 -15.5611 9.32846 15.727
3 -15.8797 6.15605 9.40766
3 -12.2433 3.86484 9.63588
3 -15.3369 6.2315 15.6355
3 -12.4121 3.14031 15.6485
3 -9.27051 6.21846 15.7295
3 -12.4024 9.29496 15.697
3 -15.2914 9.2399 12.5631
3 -9.2992 9.2524 12.6623
3 -9.46899 3.11655 19.0876
3 -15.5227 3.08593 18.9424
4 -6.24605 12.3209 -18.3931
4 -6.2417 18.2031 -18.2488
3 -3.13368 12.4031 -15.7931
3 -6.2199 15.3673 -15.5668
3 -3.15029 9.28361 -19.0721
3 -9.30781 9.34779 -19.0556
1 -6.20067 12.3015 -12.7906
1 -6.04513 12.2256 -6.29842
1 -6.2394 6.17377 -12.9032
4 -6.12928 17.7555 -6.24159
2 -9.30688 9.31656 -15.858
2 -9.32108 15.5708 -15.7229
2 -9.19094 9.19447 -9.49583
2 -9.21526 15.3496 -9.41554
3 -9.28921 12.4126 -15.6785
3 -6.21318 9.299 -15.675
3 -2.54576 12.2575 -3.25395
3 -6.19698 14.8074 -3.18461
3 -9.91156 12.258 -9.53225
3 -6.15309 10.01 -9.59379
3 -2.3821 12.2427 -9.44342
3 -6.14894 14.7344 -9.48684
3 -9.27916 15.3002 -12.5618
3 -3.09094 15.2461 -12.5919
3 -3.27279 9.06552 -6.35334
3 -9.16837 9.29662 -6.34308
1 -6.31982 12.3662 -9.16338e-14
1 -6.04513 12.2256 6.29842
1 -6.35937 6.51523 -7.61081e-14
4 -6.12928 17.7555 6.24159
2 -9.26026 9.26052 -3.183
2 -9.24994 15.4276 -3.15589
2 -9.26026 9.26052 3.183
2 -9.24994 15.4276 3.15589
3 -9.88291 12.3192 -3.08905
3 -6.21332 9.91651 -3.04888
3 -2.3821 12.2427 9.44342
3 -6.14894 14.7344 9.48684
3 -9.88291 12.3192 3.08905
3 -6.21332 9.91651 3.04888
3 -2.54576 12.2575 3.25395
3 -6.19698 14.8074 3.18461
3 -9.25903 15.2499 2.48507e-13
3 -3.22681 15.1041 1.46688e-13
3 -3.27279 9.06552 6.35334
3 -9.16837 9.29662 6.34308
1 -6.20067 12.3015 12.7906
4 -6.24605 12.3209 18.3931
1 -6.2394 6.17377 12.9032
4 -6.2417 18.2031 18.2488
2 -9.19094 9.19447 9.49583
2 -9.21526 15.3496 9.41554
2 -9.30688 9.31656 15.858
2 -9.32108 15.5708 15.7229
3 -9.91156 12.258 9.53225
3 -6.15309 10.01 9.59379
3 -9.28921 12.4126 15.6785
3 -6.21318 9.299 15.675
3 -3.13368 12.4031 15.7931
3 -6.2199 15.3673 15.5668
3 -9.27916 15.3002 12.5618
3 -3.09094 15.2461 12.5919
3 -3.15029 9.28361 19.0721
3 -9.30781 9.34779 19.0556
4 -0.0413361 18.103 -18.3803
3 2.94309 18.7699 -15.6674
3 3.12263 15.4956 -18.9228
3 -3.18624 15.5531 -18.9863
4 -0.117335 18.1035 -12.6618
4 0.241528 18.0854 -6.20855
1 -0.0922577 12.2693 -12.7759
2 -3.13156 15.5547 -15.7557
2 -3.0796 15.3615 -9.43043
3 -3.07886 18.7502 -15.6563
3 -0.0416558 15.3204 -15.6437
3 3.42161 18.5393 -3.29327
3 -3.52519 18.5615 -9.40919
3 -0.0190779 15.8705 -9.44197
3 3.49963 18.501 -9.16831
3 3.03134 14.9413 -6.26769
3 -3.02891 15.2019 -6.29719
4 -0.411284 18.189 -1.31516e-14
4 0.241528 18.0854 6.20855
1 -0.180747 12.4103 -2.68747e-14
2 -3.14108 15.3933 -3.15332
2 -3.14108 15.3933 3.15332
3 -3.51662 18.5671 -3.02371
3 -0.0683137 15.7323 -3.06123
3 3.49963 18.501 9.16831
3 -3.51662 18.5671 3.02371
3 -0.0683137 15.7323 3.06123
3 3.42161 18.5393 3.29327
3 3.03134 14.9413 6.26769
3 -3.02891 15.2019 6.29719
4 -0.117335 18.1035 12.6618
4 -0.0413361 18.103 18.3803
1 -0.0922577 12.2693 12.7759
2 -3.0796 15.3615 9.43043
2 -3.13156 15.5547 15.7557
3 -3.52519 18.5615 9.40919
3 -0.0190779 15.8705 9.44197
3 -3.07886 18.7502 15.6563
3 -0.0416558 15.3204 15.6437
3 2.94309 18.7699 15.6674
3 3.12263 15.4956 18.9228
3 -3.18624 15.5531 18.9863
4 6.16355 17.8427 -12.1846
4 6.09564 17.8008 1.54024e-14
4 6.16355 17.8427 12.1846
4 -18.1728 -12.2992 -18.1098
4 -18.1408 -6.13599 -18.2555
3 -15.3607 -12.305 -15.402
3 -18.76 -9.12074 -15.5341
3 -15.2472 -15.0733 -18.8345
4 -17.9049 -12.2121 -12.1639
4 -17.685 -12.1825 -6.19106
4 -18.1298 -17.8995 -12.3662
4 -18.0335 -6.15357 -6.14878
3 -18.7976 -14.9859 -15.0968
3 -14.9051 -12.2435 -3.10791
3 -18.5357 -9.47062 -3.23923
3 -18.5417 -15.126 -9.22663
3 -14.8528 -12.2747 -9.32924
3 -18.5531 -9.52628 -9.15162
3 -15.3642 -9.137 -12.4738
3 -15.0803 -15.2542 -6.20544
4 -17.8119 -12.1549 2.40474e-14
4 -17.685 -12.1825 6.19106
4 -18.0812 -17.7014 2.00391e-14
4 -18.0335 -6.15357 6.14878
3 -18.5027 -15.0662 -3.10808
3 -14.8528 -12.2747 9.32924
3 -18.5531 -9.52628 9.15162
3 -18.5027 -15.0662 3.10808
3 -14.9051 -12.2435 3.10791
3 -18.5357 -9.47062 3.23923
3 -15.2797 -9.10888 -3.1812e-13
3 -15.0803 -15.2542 6.20544
4 -17.9049 -12.2121 12.1639
4 -18.1728 -12.2992 18.1098
4 -18.1298 -17.8995 12.3662
4 -18.1408 -6.13599 18.2555
3 -18.5417 -15.126 9.22663
3 -18.7976 -14.9859 15.0968
3 -15.3607 -12.305 15.402
3 -18.76 -9.12074 15.5341
3 -15.3642 -9.137 12.4738
3 -15.2472 -15.0733 18.8345
4 -12.2876 -6.20339 -18.3296
4 -12.3515 0.0834821 -18.3711
3 -9.28071 -6.13972 -15.6477
3 -12.4007 -3.02803 -15.7809
3 -9.38561 -9.29345 -18.9658
3 -15.4714 -9.23702 -18.8471
1 -12.2681 -6.07741 -12.6733
1 -12.1365 -6.19792 -6.2132
1 -12.3085 -12.1885 -12.5757
1 -12.1544 -0.100209 -6.233
2 -15.5604 -9.21977 -15.6289
2 -15.5494 -3.03674 -15.6953
2 -15.3461 -9.18169 -9.33489
2 -15.2848 -3.04087 -9.38774
3 -15.3215 -6.12372 -15.5587
3 -12.3935 -9.20311 -15.517
3 -8.50318 -5.99374 -3.33326
3 -12.164 -3.53899 -3.27769
3 -15.7592 -6.1122 -9.36796
3 -12.2221 -8.55923 -9.54148
3 -8.38713 -6.06495 -9.40121
3 -12.175 -3.76816 -9.35134
3 -15.1863 -3.06534 -12.5364
3 -9.38099 -3.07157 -12.6327
3 -9.28936 -9.19025 -6.27996
3 -14.9704 -9.15776 -6.22629
1 -12.3156 -5.96173 2.39515e-14
1 -12.1365 -6.19792 6.2132
1 -12.2355 -12.0133 4.68475e-14
1 -12.1544 -0.100209 6.233
2 -15.3488 -9.15474 -3.12098
2 -15.3019 -2.9832 -3.12978
2 -15.3488 -9.15474 3.12098
2 -15.3019 -2.9832 3.12978
3 -15.57 -6.07062 -3.05698
3 -12.1783 -8.69018 -2.94213
3 -8.38713 -6.06495 9.40121
3 -12.175 -3.76816 9.35134
3 -15.57 -6.07062 3.05698
3 -12.1783 -8.69018 2.94213
3 -8.50318 -5.99374 3.33326
3 -12.164 -3.53899 3.27769
3 -15.0089 -2.89108 -1.08628e-14
3 -9.33141 -3.06949 -3.17465e-14
3 -9.28936 -9.19025 6.27996
3 -14.9704 -9.15776 6.22629
1 -12.2681 -6.07741 12.6733
4 -12.2876 -6.20339 18.3296
1 -12.3085 -12.1885 12.5757
4 -12.3515 0.0834821 18.3711
2 -15.3461 -9.18169 9.33489
2 -15.2848 -3.04087 9.38774
2 -15.5604 -9.21977 15.6289
2 -15.5494 -3.03674 15.6953
3 -15.7592 -6.1122 9.36796
3 -12.2221 -8.55923 9.54148
3 -15.3215 -6.12372 15.5587
3 -12.3935 -9.20311 15.517
3 -9.28071 -6.13972 15.6477
3 -12.4007 -3.02803 15.7809
3 -15.1863 -3.06534 12.5364
3 -9.38099 -3.07157 12.6327
3 -9.38561 -9.29345 18.9658
3 -15.4714 -9.23702 18.8471
4 -6.23928 -0.0806042 -18.4411
4 -6.16128 6.25252 -18.4413
3 -3.10524 0.0281359 -15.8477
3 -6.2147 3.10587 -15.8634
3 -3.27709 -3.22997 -19.0465
3 -9.24485 -3.09923 -19.0266
1 -6.21811 0.134523 -12.8849
1 -5.7265 -0.131637 -6.35253
1 -6.25574 -6.079 -12.8064
1 -6.08627 5.96274 -6.36537
2 -9.29571 -3.05074 -15.8318
2 -9.31431 3.12761 -15.8942
2 -9.11858 -2.987 -9.46633
2 -9.18888 3.07889 -9.50431
3 -9.30082 0.0387507 -15.686
3 -6.20222 -3.03189 -15.5574
3 -2.3538 0.0752884 -3.46348
3 -6.1838 2.41118 -3.41191
3 -10.0133 0.0423642 -9.58952
3 -6.07616 -2.23972 -9.74515
3 -2.28037 0.0143621 -9.33502
3 -6.13847 2.2928 -9.42843
3 -9.16101 3.13376 -12.6878
3 -3.24349 2.96081 -12.6962
3 -3.23605 -3.28709 -6.33157
3 -8.91417 -2.76608 -6.31957
1 -6.58957 0.301742 -2.25882e-14
1 -5.7265 -0.131637 6.35253
1 -6.28505 -5.65187 2.83897e-14
1 -6.08627 5.96274 6.36537
2 -9.10212 -2.9193 -3.17179
2 -9.2151 3.16994 -3.18648
2 -9.10212 -2.9193 3.17179
2 -9.2151 3.16994 3.18648
3 -9.84207 0.117037 -2.94306
3 -6.04569 -2.28498 -2.90344
3 -2.28037 0.0143621 9.33502
3 -6.13847 2.2928 9.42843
3 -9.84207 0.117037 2.94306
3 -6.04569 -2.28498 2.90344
3 -2.3538 0.0752884 3.46348
3 -6.1838 2.41118 3.41191
3 -9.10653 3.4204 1.04411e-13
3 -3.46211 2.99371 4.12277e-14
3 -3.23605 -3.28709 6.33157
3 -8.91417 -2.76608 6.31957
1 -6.21811 0.134523 12.8849
4 -6.23928 -0.0806042 18.4411
1 -6.25574 -6.079 12.8064
4 -6.16128 6.25252 18.4413
2 -9.11858 -2.987 9.46633
2 -9.18888 3.07889 9.50431
2 -9.29571 -3.05074 15.8318
2 -9.31431 3.12761 15.8942
3 -10.0133 0.0423642 9.58952
3 -6.07616 -2.23972 9.74515
3 -9.30082 0.0387507 15.686
3 -6.20222 -3.03189 15.5574
3 -3.10524 0.0281359 15.8477
3 -6.2147 3.10587 15.8634
3 -9.16101 3.13376 12.6878
3 -3.24349 2.96081 12.6962
3 -3.27709 -3.22997 19.0465
3 -9.24485 -3.09923 19.0266
4 -0.0685401 6.16003 -18.4144
4 0.0149377 12.2858 -18.4007
3 3.06539 6.2077 -15.813
3 -0.0339722 9.274 -15.7354
3 3.01151 3.0167 -19.042
3 -3.00469 3.23848 -19.0918
1 -0.0600891 6.26354 -12.8772
1 0.199229 5.98597 -6.34813
1 -0.144128 0.104204 -12.8419
1 0.0267623 12.1164 -6.2722
2 -3.11471 3.12077 -15.9029
2 -3.12547 9.30018 -15.8775
2 -3.06749 3.07931 -9.52588
2 -3.10814 9.16575 -9.5104
3 -3.14147 6.20778 -15.6418
3 -0.0270624 3.1504 -15.5973
3 3.66287 6.08294 -3.41952
3 -0.123376 8.52342 -3.34829
3 -3.90766 6.12777 -9.72291
3 -0.0198899 3.86317 -9.75849
3 3.81585 6.09699 -9.36737
3 -0.0434261 8.41285 -9.47318
3 -3.06502 9.35746 -12.6779
3 2.98949 9.13833 -12.6502
3 2.72579 2.81029 -6.33971
3 -2.94829 3.32971 -6.36361
1 -0.501592 6.35922 -2.12121e-14
1 0.199229 5.98597 6.34813
1 -0.304028 0.572939 -8.03096e-16
1 0.0267623 12.1164 6.2722
2 -3.14059 3.10672 -3.19243
2 -3.17198 9.19962 -3.19045
2 -3.14059 3.10672 3.19243
2 -3.17198 9.19962 3.19045
3 -3.86291 6.1562 -2.99238
3 -0.0904543 3.79773 -2.91302
3 3.81585 6.09699 9.36737
3 -0.0434261 8.41285 9.47318
3 -3.86291 6.1562 2.99238
3 -0.0904543 3.79773 2.91302
3 3.66287 6.08294 3.41952
3 -0.123376 8.52342 3.34829
3 -3.11193 9.39471 1.04835e-13
3 2.67031 8.9723 -3.13402e-14
3 2.72579 2.81029 6.33971
3 -2.94829 3.32971 6.36361
1 -0.0600891 6.26354 12.8772
4 -0.0685401 6.16003 18.4144
1 -0.144128 0.104204 12.8419
4 0.0149377 12.2858 18.4007
2 -3.06749 3.07931 9.52588
2 -3.10814 9.16575 9.5104
2 -3.11471 3.12077 15.9029
2 -3.12547 9.30018 15.8775
3 -3.90766 6.12777 9.72291
3 -0.0198899 3.86317 9.75849
3 -3.14147 6.20778 15.6418
3 -0.0270624 3.1504 15.5973
3 3.06539 6.2077 15.813
3 -0.0339722 9.274 15.7354
3 -3.06502 9.35746 12.6779
3 2.98949 9.13833 12.6502
3 3.01151 3.0167 19.042
3 -3.00469 3.23848 19.0918
4 6.12792 12.3372 -18.3086
4 6.15757 18.2045 -18.1619
3 9.19473 12.3982 -15.6675
3 6.13735 15.377 -15.4729
3 9.25296 9.25412 -18.9622
3 3.13422 9.44833 -19.0476
1 6.07425 12.2831 -12.7281
1 6.19522 12.0984 -6.18827
1 6.01733 6.22111 -12.8136
4 6.12649 17.6452 -6.19816
2 3.05665 9.30567 -15.8548
2 3.04859 15.5678 -15.7003
2 3.02827 9.15084 -9.47631
2 3.03444 15.3075 -9.38805
3 3.05334 12.4032 -15.6125
3 6.14225 9.28992 -15.603
3 9.59959 12.1296 -3.2143
3 6.05648 14.7832 -3.14039
3 2.29815 12.2189 -9.62048
3 6.07948 9.95016 -9.5624
3 9.84132 12.1658 -9.31801
3 6.10137 14.6614 -9.41303
3 2.99745 15.3855 -12.5432
3 9.20509 15.1944 -12.4781
3 8.94796 8.88582 -6.28159
3 3.08351 9.34001 -6.32044
1 5.76733 12.3222 3.93003e-14
1 6.19522 12.0984 6.18827
1 5.84441 6.46518 3.20317e-14
4 6.12649 17.6452 6.19816
2 2.9386 9.12396 -3.16457
2 2.99804 15.3703 -3.14646
2 2.9386 9.12396 3.16457
2 2.99804 15.3703 3.14646
3 2.44325 12.2181 -2.96448
3 6.00887 9.71267 -2.9113
3 9.84132 12.1658 9.31801
3 6.10137 14.6614 9.41303
3 2.44325 12.2181 2.96448
3 6.00887 9.71267 2.9113
3 9.59959 12.1296 3.2143
3 6.05648 14.7832 3.14039
3 2.96367 15.3328 -7.40218e-14
3 9.06986 15.0037 -3.01602e-13
3 8.94796 8.88582 6.28159
3 3.08351 9.34001 6.32044
1 6.07425 12.2831 12.7281
4 6.12792 12.3372 18.3086
1 6.01733 6.22111 12.8136
4 6.15757 18.2045 18.1619
2 3.02827 9.15084 9.47631
2 3.03444 15.3075 9.38805
2 3.05665 9.30567 15.8548
2 3.04859 15.5678 15.7003
3 2.29815 12.2189 9.62048
3 6.07948 9.95016 9.5624
3 3.05334 12.4032 15.6125
3 6.14225 9.28992 15.603
3 9.19473 12.3982 15.6675
3 6.13735 15.377 15.4729
3 2.99745 15.3855 12.5432
3 9.20509 15.1944 12.4781
3 9.25296 9.25412 18.9622
3 3.13422 9.44833 19.0476
4 12.3794 18.1731 -18.1468
3 15.1089 18.7808 -15.1416
3 15.1522 15.2084 -18.8322
3 9.22616 15.5693 -18.8577
4 12.0917 18.0776 -12.4234
4 11.9923 18.0286 -6.16124
1 12.2417 12.286 -12.5514
2 9.2389 15.5515 -15.6375
2 9.16864 15.2737 -9.34635
3 9.22804 18.7465 -15.4632
3 12.3274 15.3487 -15.4707
3 15.5825 18.5649 -3.09743
3 8.90837 18.4865 -9.23754
3 12.2607 15.6616 -9.33007
3 15.5827 18.6314 -9.19038
3 15.1358 15.1579 -6.20153
3 9.17266 15.0658 -6.23469
4 11.8991 18.001 2.7959e-14
4 11.9923 18.0286 6.16124
1 12.1327 12.1639 5.00861e-14
2 9.12762 15.2733 -3.11383
2 9.12762 15.2733 3.11383
3 8.91442 18.4652 -3.08245
3 12.2244 15.5193 -3.08124
3 15.5827 18.6314 9.19038
3 8.91442 18.4652 3.08245
3 12.2244 15.5193 3.08124
3 15.5825 18.5649 3.09743
3 15.1358 15.1579 6.20153
3 9.17266 15.0658 6.23469
4 12.0917 18.0776 12.4234
4 12.3794 18.1731 18.1468
1 12.2417 12.286 12.5514
2 9.16864 15.2737 9.34635
2 9.2389 15.5515 15.6375
3 8.90837 18.4865 9.23754
3 12.2607 15.6616 9.33007
3 9.22804 18.7465 15.4632
3 12.3274 15.3487 15.4707
3 15.1089 18.7808 15.1416
3 15.1522 15.2084 18.8322
3 9.22616 15.5693 18.8577
4 18.0565 17.9696 -12.3345
4 18.1036 17.7084 2.36027e-14
4 18.0565 17.9696 12.3345
4 -18.0403 -17.8035 -6.15755
4 -18.0403 -17.8035 6.15755
4 -12.4822 -18.0462 -18.2134
4 -12.3381 -12.2149 -18.2103
3 -9.34984 -18.691 -15.5489
3 -12.4108 -15.2712 -15.4881
4 -12.2158 -18.0578 -12.479
4 -11.7929 -18.0806 -6.17142
1 -12.1313 -12.2312 -6.17781
2 -15.6314 -15.5073 -15.6273
2 -15.3481 -15.4353 -9.30867
3 -15.2187 -18.6908 -15.2124
3 -8.83663 -18.4825 -3.13174
3 -12.1778 -15.5713 -3.14281
3 -15.5968 -18.6611 -9.30934
3 -8.79968 -18.5085 -9.1922
3 -12.2298 -15.7191 -9.30471
3 -15.2419 -15.2653 -12.4201
3 -9.27034 -15.2748 -12.4872
4 -11.988 -18.0262 2.51386e-14
4 -11.7929 -18.0806 6.17142
1 -12.1313 -12.2312 6.17781
2 -15.3077 -15.3991 -3.09967
2 -15.3077 -15.3991 3.09967
3 -15.5373 -18.6096 -3.03255
3 -8.79968 -18.5085 9.1922
3 -12.2298 -15.7191 9.30471
3 -15.5373 -18.6096 3.03255
3 -8.83663 -18.4825 3.13174
3 -12.1778 -15.5713 3.14281
3 -15.0782 -15.181 -3.61477e-13
3 -9.14749 -15.1389 -3.55348e-13
4 -12.2158 -18.0578 12.479
4 -12.4822 -18.0462 18.2134
4 -12.3381 -12.2149 18.2103
2 -15.3481 -15.4353 9.30867
2 -15.6314 -15.5073 15.6273
3 -15.5968 -18.6611 9.30934
3 -15.2187 -18.6908 15.2124
3 -9.34984 -18.691 15.5489
3 -12.4108 -15.2712 15.4881
3 -15.2419 -15.2653 12.4201
3 -9.27034 -15.2748 12.4872
4 -6.26291 -12.2794 -18.3206
4 -6.18668 -6.11509 -18.3312
3 -3.13402 -12.3468 -15.7347
3 -6.2064 -9.21881 -15.6944
3 -3.21098 -15.5006 -18.9131
3 -9.30202 -15.427 -18.861
1 -6.23731 -12.1897 -12.64
1 -5.75143 -12.3345 -6.25112
4 -6.15775 -17.8202 -12.2885
1 -5.91791 -6.39794 -6.29445
2 -9.32064 -15.489 -15.647
2 -9.30202 -9.23588 -15.7685
2 -9.14304 -15.3097 -9.35012
2 -9.12785 -9.12399 -9.42032
3 -9.28716 -12.3299 -15.5561
3 -6.21826 -15.2892 -15.4704
3 -2.40207 -12.186 -3.34134
3 -6.01067 -9.71084 -3.37279
3 -9.80047 -12.2033 -9.49486
3 -6.07315 -14.7357 -9.46201
3 -2.36909 -12.2472 -9.29212
3 -6.07556 -9.89001 -9.28795
3 -9.13687 -9.14669 -12.5749
3 -3.2163 -9.39629 -12.5922
3 -2.97207 -15.3091 -6.25788
3 -9.01488 -14.9989 -6.23568
1 -6.23463 -12.0614 3.85477e-14
1 -5.75143 -12.3345 6.25112
4 -6.04159 -17.653 2.45858e-14
1 -5.91791 -6.39794 6.29445
2 -9.08226 -15.2882 -3.11808
2 -9.06863 -9.06488 -3.13668
2 -9.08226 -15.2882 3.11808
2 -9.06863 -9.06488 3.13668
3 -9.59274 -12.1501 -2.98511
3 -6.0159 -14.7526 -3.06169
3 -2.36909 -12.2472 9.29212
3 -6.07556 -9.89001 9.28795
3 -9.59274 -12.1501 2.98511
3 -6.0159 -14.7526 3.06169
3 -2.40207 -12.186 3.34134
3 -6.01067 -9.71084 3.37279
3 -8.8659 -8.86386 -1.79077e-13
3 -3.16049 -9.34739 -8.27703e-14
3 -2.97207 -15.3091 6.25788
3 -9.01488 -14.9989 6.23568
1 -6.23731 -12.1897 12.64
4 -6.26291 -12.2794 18.3206
4 -6.15775 -17.8202 12.2885
4 -6.18668 -6.11509 18.3312
2 -9.14304 -15.3097 9.35012
2 -9.12785 -9.12399 9.42032
2 -9.32064 -15.489 15.647
2 -9.30202 -9.23588 15.7685
3 -9.80047 -12.2033 9.49486
3 -6.07315 -14.7357 9.46201
3 -9.28716 -12.3299 15.5561
3 -6.21826 -15.2892 15.4704
3 -3.13402 -12.3468 15.7347
3 -6.2064 -9.21881 15.6944
3 -9.13687 -9.14669 12.5749
3 -3.2163 -9.39629 12.5922
3 -3.21098 -15.5006 18.9131
3 -9.30202 -15.427 18.861
4 -0.104523 -6.24734 -18.3638
4 0.0652408 0.099418 -18.4099
3 3.0581 -6.17258 -15.7814
3 -0.0197687 -3.06915 -15.8506
3 2.9841 -9.4329 -18.9798
3 -3.04715 -9.2242 -18.9778
1 -0.100304 -6.02182 -12.7839
1 0.484744 -6.36932 -6.32655
1 -0.0789943 -12.2026 -12.6528
1 0.23188 -0.446548 -6.34392
2 -3.10962 -9.24431 -15.7831
2 -3.11491 -3.06694 -15.8586
2 -3.00809 -9.15366 -9.44978
2 -3.03355 -3.0642 -9.49614
3 -3.1408 -6.15325 -15.5349
3 -0.020568 -9.22128 -15.4842
3 3.84624 -6.12504 -3.44906
3 0.0397327 -3.76125 -3.47021
3 -3.80114 -6.11784 -9.72481
3 0.0581036 -8.50181 -9.70597
3 3.83264 -6.15298 -9.28367
3 0.0314052 -3.83808 -9.28509
3 -2.8901 -2.90675 -12.6583
3 2.88523 -3.27632 -12.6296
3 3.01812 -9.47045 -6.30381
3 -2.72021 -8.94339 -6.30512
1 -0.398129 -5.8862 1.92884e-14
1 0.484744 -6.36932 6.32655
1 -0.0618276 -11.9988 2.45808e-14
1 0.23188 -0.446548 6.34392
2 -2.93765 -9.09346 -3.14563
2 -2.99329 -2.98631 -3.16385
2 -2.93765 -9.09346 3.14563
2 -2.99329 -2.98631 3.16385
3 -3.66526 -6.04697 -2.87092
3 0.138218 -8.50576 -2.89448
3 3.83264 -6.15298 9.28367
3 0.0314052 -3.83808 9.28509
3 -3.66526 -6.04697 2.87092
3 0.138218 -8.50576 2.89448
3 3.84624 -6.12504 3.44906
3 0.0397327 -3.76125 3.47021
3 -2.75815 -2.66451 -1.99086e-14
3 2.77798 -3.34888 -1.774e-14
3 3.01812 -9.47045 6.30381
3 -2.72021 -8.94339 6.30512
1 -0.100304 -6.02182 12.7839
4 -0.104523 -6.24734 18.3638
1 -0.0789943 -12.2026 12.6528
4 0.0652408 0.099418 18.4099
2 -3.00809 -9.15366 9.44978
2 -3.03355 -3.0642 9.49614
2 -3.10962 -9.24431 15.7831
2 -3.11491 -3.06694 15.8586
3 -3.80114 -6.11784 9.72481
3 0.0581036 -8.50181 9.70597
3 -3.1408 -6.15325 15.5349
3 -0.020568 -9.22128 15.4842
3 3.0581 -6.17258 15.7814
3 -0.0197687 -3.06915 15.8506
3 -2.8901 -2.90675 12.6583
3 2.88523 -3.27632 12.6296
3 2.9841 -9.4329 18.9798
3 -3.04715 -9.2242 18.9778
4 6.0945 -0.0538665 -18.3364
4 6.23079 6.24148 -18.3844
3 9.2365 0.0191821 -15.7492
3 6.16058 3.11269 -15.783
3 9.18124 -3.2163 -18.9598
3 3.25633 -2.99094 -19.0107
1 6.07401 0.14963 -12.7924
1 6.58632 -0.29604 -6.3267
1 6.02043 -6.103 -12.7394
1 6.25461 5.70536 -6.3154
2 3.07865 -3.07047 -15.8222
2 3.06177 3.10712 -15.852
2 3.10098 -3.07534 -9.48124
2 3.0192 3.02533 -9.49089
3 3.03149 0.0197431 -15.5366
3 6.16699 -3.04373 -15.4585
3 9.82146 -0.14061 -3.4193
3 5.99905 2.29229 -3.45255
3 2.29444 -0.0348151 -9.75613
3 6.15879 -2.3734 -9.76868
3 9.88324 -0.0485429 -9.26723
3 6.0919 2.26584 -9.28681
3 3.21866 3.2365 -12.6503
3 9.09902 2.9189 -12.6066
3 9.0332 -3.47764 -6.31345
3 3.41711 -2.87108 -6.32432
1 5.52584 0.196554 2.03838e-14
1 6.58632 -0.29604 6.3267
1 5.99306 -5.71769 9.27701e-15
1 6.25461 5.70536 6.3154
2 3.09005 -3.07519 -3.15748
2 2.95118 3.03536 -3.1774
2 3.09005 -3.07519 3.15748
2 2.95118 3.03536 3.1774
3 2.31287 -0.0314098 -2.85032
3 6.15238 -2.42476 -2.83827
3 9.88324 -0.0485429 9.26723
3 6.0919 2.26584 9.28681
3 2.31287 -0.0314098 2.85032
3 6.15238 -2.42476 2.83827
3 9.82146 -0.14061 3.4193
3 5.99905 2.29229 3.45255
3 3.13596 3.3729 -2.03524e-14
3 8.78877 2.59687 -8.45634e-14
3 9.0332 -3.47764 6.31345
3 3.41711 -2.87108 6.32432
1 6.07401 0.14963 12.7924
4 6.0945 -0.0538665 18.3364
1 6.02043 -6.103 12.7394
4 6.23079 6.24148 18.3844
2 3.10098 -3.07534 9.48124
2 3.0192 3.02533 9.49089
2 3.07865 -3.07047 15.8222
2 3.06177 3.10712 15.852
3 2.29444 -0.0348151 9.75613
3 6.15879 -2.3734 9.76868
3 3.03149 0.0197431 15.5366
3 6.16699 -3.04373 15.4585
3 9.2365 0.0191821 15.7492
3 6.16058 3.11269 15.783
3 3.21866 3.2365 12.6503
3 9.09902 2.9189 12.6066
3 9.18124 -3.2163 18.9598
3 3.25633 -2.99094 19.0107
4 12.2264 6.20604 -18.2556
4 12.2657 12.316 -18.2578
3 15.2799 6.21701 -15.5361
3 12.3286 9.28359 -15.6148
3 15.4596 3.09725 -18.8598
3 9.42221 3.24053 -18.9938
1 12.1799 6.22676 -12.6617
1 12.3379 5.97478 -6.21723
1 12.2149 0.113589 -12.6287
1 12.2652 12.0764 -6.17665
2 9.26175 3.11268 -15.8016
2 9.23472 9.29525 -15.7661
2 9.16004 3.01383 -9.45049
2 9.11361 9.11001 -9.42337
3 9.20548 6.1986 -15.505
3 12.3621 3.12741 -15.5194
3 15.5536 6.02505 -3.18922
3 12.1763 8.6663 -3.24372
3 8.41892 6.06352 -9.67593
3 12.2355 3.68277 -9.61728
3 15.796 6.07776 -9.26585
3 12.2177 8.51418 -9.33738
3 9.25742 9.34706 -12.5748
3 15.1813 9.20189 -12.4779
3 14.9625 2.8393 -6.24331
3 9.35152 3.1392 -6.29475
1 12.097 6.19452 4.89312e-14
1 12.3379 5.97478 6.21723
1 12.0838 0.157842 2.52833e-14
1 12.2652 12.0764 6.17665
2 9.06404 2.89655 -3.13059
2 9.06222 9.04022 -3.14108
2 9.06404 2.89655 3.13059
2 9.06222 9.04022 3.14108
3 8.46069 5.97297 -2.93094
3 12.1294 3.51435 -2.91191
3 15.796 6.07776 9.26585
3 12.2177 8.51418 9.33738
3 8.46069 5.97297 2.93094
3 12.1294 3.51435 2.91191
3 15.5536 6.02505 3.18922
3 12.1763 8.6663 3.24372
3 9.25683 9.17386 -2.25201e-13
3 15.0088 9.07922 -3.83597e-13
3 14.9625 2.8393 6.24331
3 9.35152 3.1392 6.29475
1 12.1799 6.22676 12.6617
4 12.2264 6.20604 18.2556
1 12.2149 0.113589 12.6287
4 12.2657 12.316 18.2578
2 9.16004 3.01383 9.45049
2 9.11361 9.11001 9.42337
2 9.26175 3.11268 15.8016
2 9.23472 9.29525 15.7661
3 8.41892 6.06352 9.67593
3 12.2355 3.68277 9.61728
3 9.20548 6.1986 15.505
3 12.3621 3.12741 15.5194
3 15.2799 6.21701 15.5361
3 12.3286 9.28359 15.6148
3 9.25742 9.34706 12.5748
3 15.1813 9.20189 12.4779
3 15.4596 3.09725 18.8598
3 9.42221 3.24053 18.9938
4 18.0879 12.4273 -18.1385
3 18.7165 15.096 -15.123
3 15.4315 9.34416 -18.8633
4 17.8412 12.2444 -12.2691
4 17.8147 12.1141 -6.19148
4 18.0522 6.28816 -12.5127
4 18.1141 17.7058 -6.15554
2 15.4834 9.31329 -15.6394
2 15.5441 15.6057 -15.624
2 15.3607 9.14885 -9.34996
2 15.3773 15.4035 -9.30537
3 15.2755 12.3953 -15.4325
3 18.6768 9.27067 -15.5091
3 18.5495 15.0126 -3.08393
3 14.8936 12.246 -9.34901
3 18.5772 9.51683 -9.39039
3 18.5682 15.1049 -9.27898
3 15.1972 15.3148 -12.4206
3 15.1999 9.1155 -6.23474
4 17.7341 12.0886 2.92946e-14
4 17.8147 12.1141 6.19148
4 17.9582 6.1169 2.6446e-14
4 18.1141 17.7058 6.15554
2 15.3485 9.1098 -3.11235
2 15.3559 15.3553 -3.10044
2 15.3485 9.1098 3.11235
2 15.3559 15.3553 3.10044
3 14.9445 12.2009 -3.08233
3 18.5391 9.38571 -3.01131
3 18.5682 15.1049 9.27898
3 14.9445 12.2009 3.08233
3 18.5391 9.38571 3.01131
3 18.5495 15.0126 3.08393
3 15.1222 15.1902 -4.68631e-13
3 15.1999 9.1155 6.23474
4 17.8412 12.2444 12.2691
4 18.0879 12.4273 18.1385
4 18.0522 6.28816 12.5127
2 15.3607 9.14885 9.34996
2 15.3773 15.4035 9.30537
2 15.4834 9.31329 15.6394
2 15.5441 15.6057 15.624
3 14.8936 12.246 9.34901
3 18.5772 9.51683 9.39039
3 15.2755 12.3953 15.4325
3 18.6768 9.27067 15.5091
3 18.7165 15.096 15.123
3 15.1972 15.3148 12.4206
3 15.4315 9.34416 18.8633
4 -6.2631 -18.121 -18.1651
4 -6.05139 -17.8128 -6.15695
4 -6.05139 -17.8128 6.15695
4 -6.2631 -18.121 18.1651
4 -0.0729761 -18.0461 -18.3223
4 0.0102407 -12.208 -18.2701
3 2.95753 -18.7529 -15.6899
3 -0.0354306 -15.2827 -15.5681
4 -0.156656 -18.072 -12.5547
4 0.452322 -18.2455 -6.22729
1 0.221209 -12.4821 -6.28256
2 -3.12994 -15.4907 -15.6847
2 -3.01139 -15.3904 -9.38702
3 -3.11058 -18.6859 -15.5602
3 3.54253 -18.5615 -3.25628
3 0.112681 -15.7153 -3.2548
3 -3.40388 -18.5833 -9.46059
3 3.54752 -18.6322 -9.19408
3 0.0655202 -15.8162 -9.30318
3 -3.04402 -15.1666 -12.524
3 3.02222 -15.5092 -12.5251
4 -0.17569 -17.9918 1.36846e-14
4 0.452322 -18.2455 6.22729
1 0.221209 -12.4821 6.28256
2 -2.95424 -15.3364 -3.11106
2 -2.95424 -15.3364 3.11106
3 -3.3598 -18.5097 -2.94533
3 3.54752 -18.6322 9.19408
3 0.0655202 -15.8162 9.30318
3 -3.3598 -18.5097 2.94533
3 3.54253 -18.5615 3.25628
3 0.112681 -15.7153 3.2548
3 -2.92761 -14.9106 -1.27418e-13
3 3.04001 -15.32 -3.07805e-14
4 -0.156656 -18.072 12.5547
4 -0.0729761 -18.0461 18.3223
4 0.0102407 -12.208 18.2701
2 -3.01139 -15.3904 9.38702
2 -3.12994 -15.4907 15.6847
3 -3.40388 -18.5833 9.46059
3 -3.11058 -18.6859 15.5602
3 2.95753 -18.7529 15.6899
3 -0.0354306 -15.2827 15.5681
3 -3.04402 -15.1666 12.524
3 3.02222 -15.5092 12.5251
4 6.06792 -12.3191 -18.294
4 6.23785 -6.08108 -18.2917
3 9.20178 -12.3751 -15.7312
3 6.16773 -9.22926 -15.7026
3 9.19773 -15.5356 -18.9159
3 3.09 -15.4221 -18.8892
1 6.09816 -12.2551 -12.6153
1 6.50144 -12.4452 -6.3569
4 6.23771 -17.948 -12.2892
1 6.40927 -6.61748 -6.35442
2 3.05938 -15.5416 -15.6753
2 3.06863 -9.2742 -15.7884
2 3.14051 -15.4419 -9.38976
2 3.10207 -9.22475 -9.4573
3 3.0661 -12.3764 -15.4928
3 6.15586 -15.3511 -15.4599
3 9.99947 -12.3668 -3.31924
3 6.24417 -9.95696 -3.38373
3 2.53854 -12.3161 -9.65484
3 6.21492 -14.9203 -9.50141
3 9.72233 -12.3502 -9.31766
3 6.18055 -9.86602 -9.30459
3 3.24664 -9.11824 -12.5998
3 9.14626 -9.47977 -12.5794
3 9.32945 -15.3862 -6.28283
3 3.31002 -15.0747 -6.27153
1 5.97923 -12.202 3.33653e-15
1 6.50144 -12.4452 6.3569
4 6.17703 -17.7642 3.32022e-15
1 6.40927 -6.61748 6.35442
2 3.19508 -15.3754 -3.12982
2 3.20304 -9.18139 -3.13272
2 3.19508 -15.3754 3.12982
2 3.20304 -9.18139 3.13272
3 2.57115 -12.2455 -2.93885
3 6.26438 -14.798 -3.08744
3 9.72233 -12.3502 9.31766
3 6.18055 -9.86602 9.30459
3 2.57115 -12.2455 2.93885
3 6.26438 -14.798 3.08744
3 9.99947 -12.3668 3.31924
3 6.24417 -9.95696 3.38373
3 3.50406 -8.94478 -2.44755e-14
3 9.16591 -9.55021 7.8133e-15
3 9.32945 -15.3862 6.28283
3 3.31002 -15.0747 6.27153
1 6.09816 -12.2551 12.6153
4 6.06792 -12.3191 18.294
4 6.23771 -17.948 12.2892
4 6.23785 -6.08108 18.2917
2 3.14051 -15.4419 9.38976
2 3.10207 -9.22475 9.4573