421
 Atoms. Timestep: 10001254
4 -11.8159 12.4734 -6.14459
4 -11.8469 12.3118 6.17807
4 -12.2643 6.91033 -12.0488
3 -9.04027 6.384 -9.53195
3 -12.7716 9.61321 -8.74087
3 -9.05299 3.01219 -12.8414
4 -11.9217 6.64171 -6.58416
4 -12.3778 6.65517 -0.184959
4 -12.2482 0.099638 -6.0686
4 -11.9927 12.1817 0.332316
3 -12.7014 3.78313 -9.93772
3 -9.61264 6.31809 3.3088
3 -12.8285 9.47721 3.30256
3 -12.999 3.84608 -3.80602
3 -9.40837 6.54722 -3.41522
3 -12.4393 10.2846 -2.98765
3 -9.04915 9.61402 -6.24527
3 -10.1979 3.33907 0.0136831
4 -12.1773 6.09802 6.19855
4 -12.284 6.42176 11.6102
4 -11.9338 0.274212 6.28439
3 -13.0842 3.44348 3.53853
3 -12.7664 3.23807 9.11247
3 -9.30607 6.26377 8.93833
3 -12.7139 9.51575 8.69469
3 -9.15198 9.56918 6.24656
3 -9.47899 3.50992 12.9121
4 -6.15347 12.2138 -11.9786
3 -2.88389 12.8005 -9.84735
3 -2.73451 9.13481 -12.8717
3 -8.86171 8.92193 -12.8242
4 -5.73644 12.3059 -6.02303
4 -6.08658 12.2535 0.219799
1 -6.28555 6.59937 -6.45361
2 -9.01566 9.66965 -9.6642
2 -9.15693 9.57922 -3.24751
3 -8.29509 13.2078 -8.95906
3 -6.00025 9.65389 -9.30933
3 -2.88069 12.5582 2.96508
3 -9.3202 12.8313 -2.96623
3 -6.20239 9.94632 -3.14837
3 -2.58023 12.9052 -3.21803
3 -3.15706 9.11772 0.0118753
3 -9.12534 9.21634 0.0848776
4 -6.06405 11.9184 6.04547
4 -6.37164 12.0575 12.4085
1 -6.29719 6.22265 6.24903
2 -9.49804 9.43566 3.16285
2 -9.34834 9.39544 9.49747
3 -9.05093 12.7978 3.45836
3 -6.32814 9.24628 2.98197
3 -9.17002 13.169 9.49936
3 -6.30076 9.25843 9.36327
3 -3.21521 12.618 9.41974
3 -3.2726 9.1755 12.5286
3 -9.58008 8.94538 12.5537
4 0.26904 11.9249 -5.80777
4 -0.217295 12.0863 6.01046
4 -12.2419 -7.03295 -11.9153
4 -12.0486 0.0482468 -11.7812
3 -9.67307 -6.57982 -9.19833
3 -12.7669 -3.02098 -9.67606
3 -9.18592 -9.40097 -12.3851
4 -12.3868 -6.48532 -5.57784
4 -12.1686 -6.14179 0.216524
4 -12.2375 -12.3852 -5.95394
4 -12.2877 -0.304432 0.16034
3 -13.3765 -9.56887 -9.04147
3 -9.72889 -6.21224 3.32774
3 -12.9999 -3.16995 3.04482
3 -12.6072 -9.33628 -2.3146
3 -9.4193 -6.19954 -3.19659
3 -12.9179 -2.98537 -3.11907
3 -9.75388 -3.06438 -6.3246
3 -8.95564 -9.62518 0.065669
4 -12.0383 -5.75644 6.6118
4 -12.2149 -6.57029 12.5787
4 -12.6265 -11.9171 6.33891
4 -11.7376 -0.10012 12.9961
3 -12.703 -9.63396 3.08708
3 -13.2129 -8.67412 9.21439
3 -9.39895 -6.17334 9.60386
3 -12.7613 -3.07961 9.91125
3 -9.46049 -3.00138 6.64772
3 -9.00097 -9.09073 13.2208
4 -6.5435 -0.165631 -11.8765
4 -5.84933 6.21672 -12.318
3 -2.97729 0.0588395 -9.28583
3 -6.19281 2.87683 -9.50516
3 -3.42641 -3.71479 -12.7144
3 -9.21678 -3.17953 -12.4783
1 -6.0216 -0.145742 -6.56224
1 -6.74481 -0.270411 -0.062799
1 -6.60525 -6.11584 -6.00678
1 -6.51274 6.2738 -0.349252
2 -9.5806 -3.38433 -9.45965
2 -9.3445 2.95983 -9.4839
2 -9.69822 -2.92979 -3.16884
2 -9.73308 3.4149 -3.04122
3 -9.33617 0.00452154 -8.75201
3 -6.28331 -3.15291 -8.85598
3 -3.11007 -0.107017 3.57266
3 -6.59097 2.64979 2.33152
3 -9.70371 0.0625047 -2.75598
3 -6.57278 -2.88518 -3.43888
3 -3.18066 -0.125093 -3.03552
3 -6.29961 2.88571 -2.71798
3 -9.21998 3.33492 -6.35084
3 -3.73778 3.22209 -6.13929
3 -3.85407 -3.35635 -0.0255604
3 -9.46701 -3.08527 -0.0381647
1 -6.13709 -0.242136 6.38321
4 -5.95578 0.0167819 12.3451
1 -6.64048 -6.14935 6.59472
4 -6.3035 5.96319 11.9994
2 -9.72967 -3.09422 3.19549
2 -9.91809 3.15529 3.13917
2 -9.03458 -3.22537 10.0485
2 -9.55043 3.22299 9.69035
3 -9.54465 -0.0613535 3.20331
3 -6.42684 -3.31356 3.67046
3 -9.60652 0.0361829 9.65622
3 -6.09994 -3.09072 9.54632
3 -2.58817 0.0717693 9.167
3 -6.29037 2.9143 9.60256
3 -8.91282 3.06107 6.28601
3 -4.08581 3.04754 6.23896
3 -2.5858 -2.85124 12.7716
3 -8.75265 -3.61294 13.2489
4 -0.0279919 6.03085 -12.0891
4 0.197227 11.8417 -12.4672
3 3.22232 6.46799 -9.3483
3 0.231542 9.4195 -9.23472
3 2.84104 3.02965 -12.8203
3 -2.98784 3.03079 -12.4118
1 -0.10903 6.56921 -6.2933
1 -0.589309 6.21811 0.0141008
1 0.0101807 -0.117645 -6.13819
4 -0.13953 11.9492 -0.0653511
2 -3.15643 3.35371 -9.2488
2 -2.86895 9.56995 -9.24626
2 -3.25486 3.09713 -2.99444
2 -3.06963 9.63962 -3.08329
3 -3.14809 6.48749 -9.00331
3 0.00396738 3.48714 -9.04217
3 3.15038 6.11004 3.72177
3 -0.0188023 9.17135 3.27648
3 -3.73046 6.41491 -3.30054
3 -0.0907521 3.5572 -3.36938
3 3.64843 6.21555 -3.6631
3 0.0195512 8.90979 -3.06626
3 -3.08221 9.59735 -6.18057
3 3.42956 9.59462 -6.74519
3 2.57652 3.74221 0.112964
3 -2.60271 2.80302 0.0629519
1 -0.35762 6.16109 6.22914
4 -0.253002 6.36172 11.5307
1 0.198021 -0.358842 6.19991
4 -0.315387 12.0802 12.0518
2 -3.39376 3.01487 3.02854
2 -3.09895 9.3586 3.09913
2 -3.17054 3.02428 9.62207
2 -3.1648 9.45905 9.4054
3 -3.64963 6.12527 3.14557
3 -0.279113 2.81402 3.79013
3 -3.41035 6.15916 9.11048
3 -0.157699 3.24198 8.82629
3 2.89168 5.96142 8.98688
3 -0.0701912 9.4074 9.16929
3 -3.03227 9.0558 6.19939
3 3.22259 9.72816 5.94148
3 2.72247 3.82416 12.5349
3 -2.69142 3.25809 12.6321
4 6.59199 12.4977 -12.5582
3 9.5306 13.0183 -9.33411
3 9.29846 9.21386 -13.1272
3 3.20566 9.19566 -13.1406
4 6.37345 12.1044 -6.18201
4 6.596 11.9652 -0.28896
1 6.32266 6.47881 -6.82875
2 3.31818 9.64112 -9.89571
2 3.16098 9.40157 -3.37086
3 3.37359 12.7284 -9.78154
3 6.53671 9.73704 -9.7319
3 9.78888 12.4276 3.08216
3 3.07266 12.3691 -2.72538
3 6.46486 9.12023 -3.11289
3 9.4077 12.8812 -3.21501
3 9.5014 9.21253 -0.172445
3 2.98345 8.49161 -0.0254853
4 6.08645 12.3559 6.8727
4 6.21657 11.9883 12.2956
1 6.39961 6.33931 6.5322
2 3.18896 9.26918 2.904
2 2.97979 9.26265 9.25194
3 3.0808 12.4375 2.41465
3 6.24952 9.33674 2.90219
3 3.0987 12.5364 9.94949
3 6.10216 9.27556 9.60205
3 9.04751 12.9128 9.50567
3 9.07416 9.03732 12.9328
3 2.69504 9.26552 12.7859
4 12.4582 12.2852 -6.17466
4 12.2305 11.9549 6.42791
4 -12.0318 -12.4836 0.400222
4 -6.86934 -12.7769 -11.8947
4 -6.46558 -6.60885 -11.4818
3 -2.92888 -13.0418 -9.87541
3 -6.42571 -9.98578 -8.85765
4 -6.32917 -12.2989 -5.84584
4 -6.21053 -12.5823 0.404514
1 -6.20084 -6.45435 0.257863
2 -9.92112 -9.93095 -9.45248
2 -9.39204 -9.46658 -3.12259
3 -9.84852 -12.9853 -9.04813
3 -3.41744 -12.669 4.01359
3 -6.2335 -8.92393 3.63411
3 -9.30591 -12.8009 -3.19233
3 -3.64993 -12.6446 -2.88164
3 -6.23344 -9.49348 -3.29492
3 -9.68041 -9.50845 -6.19399
3 -3.21631 -9.95262 -6.30231
4 -6.64155 -11.8491 6.53773
4 -6.17073 -11.8657 12.3799
4 -6.11355 -6.27259 12.1854
2 -9.41816 -9.25272 3.3085
2 -9.63436 -9.36499 9.79795
3 -9.09293 -12.3597 3.37645
3 -10.002 -12.6245 9.30399
3 -2.9718 -12.586 9.83536
3 -6.57515 -9.22975 9.38977
3 -9.74514 -9.09649 6.47858
3 -3.16551 -9.2023 6.3304
4 -0.483299 -6.47557 -11.8813
4 0.175234 0.222927 -11.9433
3 3.05487 -6.43551 -9.29916
3 0.00370028 -3.27287 -9.26686
3 3.01815 -9.31899 -12.9453
3 -3.19598 -9.67653 -12.6418
1 -0.370402 -6.4909 -6.25414
1 -0.159537 -6.32998 0.520012
4 0.093676 -12.1972 -6.07927
1 -0.273843 -0.256373 0.413601
2 -3.30917 -9.63834 -9.40665
2 -3.10181 -3.0924 -9.40941
2 -3.16309 -9.49234 -3.07309
2 -3.20735 -3.22402 -3.06914
3 -3.3816 -6.54784 -8.91525
3 -0.1695 -9.58139 -9.29627
3 3.20708 -6.53289 3.85713
3 0.00994374 -3.01895 3.25309
3 -3.33366 -6.37206 -3.29498
3 -0.0494464 -9.16553 -3.20438
3 3.58382 -6.28848 -3.6012
3 -0.174838 -3.28414 -2.37863
3 -3.11657 -3.10424 -6.19538
3 2.66024 -3.17915 -6.13556
3 3.1486 -8.9016 -0.0768927
3 -3.12793 -8.99762 0.0885368
1 -0.407686 -6.35935 6.21497
4 0.354448 -6.29926 11.9839
4 0.0179826 -12.0747 6.20719
4 -0.0263347 0.606892 12.3614
2 -3.01269 -9.70988 3.29846
2 -3.0874 -3.18447 3.21813
2 -3.36283 -9.41115 9.43829
2 -2.9574 -3.1802 9.695
3 -2.88752 -6.18891 3.38483
3 0.104874 -9.39068 3.12645
3 -3.26192 -6.3503 9.3034
3 -0.0267549 -9.32082 9.42663
3 3.11655 -6.54865 8.67369
3 0.148288 -3.37452 9.05864
3 -3.05406 -3.3001 6.57611
3 3.47119 -2.38461 6.14182
3 3.41799 -8.66068 12.6414
3 -3.20798 -9.12144 12.792
4 6.21639 -0.192241 -12.0953
4 6.68646 6.11453 -12.549
3 9.24191 0.0577865 -9.46155
3 6.23432 3.15085 -9.51107
3 8.9311 -3.01844 -13.2692
3 3.14673 -3.16515 -12.6896
1 6.15814 0.22078 -6.16041
1 5.93261 -0.527648 -0.176596
1 6.02247 -6.12281 -6.55354
1 6.09235 6.00252 -0.11538
2 3.03562 -3.07866 -9.34478
2 3.16841 3.35745 -9.55044
2 2.91751 -3.33807 -2.99192
2 3.20698 3.16047 -3.04395
3 3.26315 0.0653691 -9.41977
3 6.05882 -2.94298 -9.24099
3 9.53508 0.0395989 3.14253
3 6.16729 2.86547 2.48813
3 2.64029 0.0148026 -2.82691
3 6.00859 -2.78993 -3.34649
3 9.30155 -0.0715528 -3.39823
3 6.31011 2.4171 -2.48606
3 3.23903 2.71319 -6.20624
3 8.90995 3.25049 -6.22836
3 9.28815 -2.83696 -0.181069
3 3.25545 -4.1663 0.187544
1 6.81769 0.158313 6.08659
4 6.36583 -0.293509 12.2435
1 6.44921 -5.98529 6.27582
4 5.68993 6.25689 12.0444
2 3.19653 -3.35908 3.22756
2 2.92736 2.96922 3.1202
2 3.35792 -3.29656 9.23419
2 2.83766 2.91378 9.43552
3 3.06357 -0.231657 2.3341
3 6.43884 -3.03141 3.25927
3 2.92849 -0.0503245 9.86867
3 6.33638 -3.04249 9.07665
3 9.91151 0.117258 9.15618
3 6.17484 3.18246 9.8884
3 3.62842 2.57259 6.26917
3 9.27915 3.36091 6.21652
3 9.12768 -3.09697 12.6628
3 3.40762 -3.60708 12.243
4 12.2682 6.17197 -12.2163
3 13.3267 8.92491 -8.88683
3 9.49923 3.19814 -12.8195
4 12.0317 6.39538 -6.0625
4 12.086 6.10698 0.19818
4 11.9684 -0.279235 -6.50446
4 12.4724 11.5863 0.0760017
2 9.38368 3.30708 -9.48037
2 9.7852 9.63736 -9.87084
2 9.43952 3.1594 -3.08833
2 9.60083 9.57614 -3.35732
3 9.4318 6.55143 -9.39371
3 12.6615 2.47821 -9.14538
3 12.9684 9.49176 3.47918
3 9.47675 6.29588 -3.19297
3 12.713 2.61962 -3.38933
3 12.7674 9.21281 -2.87304
3 9.44408 9.72231 -6.4706
3 9.62429 3.14926 -0.173155
4 12.3464 6.45297 6.20465
4 12.218 6.50581 11.8987
4 12.5434 0.0735454 6.08013
2 9.27965 3.16395 2.90786
2 9.2827 9.38576 2.83268
2 9.4328 3.15324 9.51491
2 9.4328 9.46087 9.75495
3 9.3482 6.36262 3.42265
3 12.6893 3.50859 3.06929
3 9.11623 6.27825 9.37542
3 12.8794 3.30486 9.29337
3 12.9554 9.22309 9.08472
3 9.21221 9.62999 6.21655
3 10.2759 3.25912 12.7421
4 0.0296617 -12.1707 -12.2732
4 -0.356712 -11.8828 -0.308896
4 0.109339 -10.9644 13.1791
4 6.69144 -12.0274 -12.2387
4 5.74513 -6.21801 -12.4283
3 9.79893 -12.284 -9.28413
3 6.17522 -9.15458 -9.82259
4 6.271 -12.4541 -6.52631
4 6.18992 -12.6943 0.0978779
1 6.44363 -6.69985 -0.174653
2 2.92941 -9.4927 -9.52925
2 3.24033 -9.55757 -3.28187
3 3.07381 -12.7113 -9.30359
3 9.82154 -12.6063 2.67712
3 6.52268 -9.2216 2.96848
3 2.4896 -12.7441 -2.74852
3 9.54652 -12.6127 -3.89478
3 6.43111 -9.92694 -2.87933
3 3.3194 -9.53987 -6.35762
3 8.9639 -8.8815 -6.49235
4 6.74391 -12.113 5.65861
4 6.77766 -11.8486 12.0299
4 6.49747 -5.89707 11.7887
2 3.5425 -9.9773 3.04684
2 3.12192 -9.42779 9.33624
3 3.02905 -13.102 2.99271
3 2.64659 -12.7527 9.98896
3 9.22592 -12.5932 8.99899
3 6.38645 -9.06415 9.09715
3 3.30521 -10.3906 6.27777
3 9.28887 -8.91818 6.28525
4 11.9995 -5.92935 -12.4381
4 11.7977 -0.0847658 -12.4783
3 12.4683 -3.05908 -9.66958
3 9.11994 -8.79843 -13.028
4 11.8053 -6.31591 -6.19342
4 12.0357 -6.14772 -0.160614
4 12.9567 -11.5219 -6.83694
4 12.5058 -0.197597 -0.569838
2 9.63724 -9.35744 -9.91574
2 9.16618 -3.04474 -9.98806
2 9.40942 -9.43527 -3.37558
2 9.07396 -3.09878 -3.29925
3 9.02126 -5.9575 -9.63469
3 12.8482 -8.31663 -9.29162
3 12.935 -3.38317 2.67946
3 9.07041 -6.249 -3.13467
3 12.976 -9.21332 -3.43297
3 12.4537 -3.27475 -3.43284
3 9.14944 -3.11366 -6.56649
3 9.56275 -9.39684 -0.320751
4 12.0748 -6.17163 6.0178
4 12.428 -6.14761 11.9749
4 12.0076 -11.9211 5.94807
4 12.6362 0.201324 11.9792
2 9.61107 -9.21449 2.95792
2 9.63707 -3.16552 2.94472
2 9.82924 -9.40041 9.34436
2 9.66352 -3.05468 9.58343
3 9.38263 -6.19467 3.08446
3 12.9781 -8.98621 3.33603
3 9.8155 -6.17504 9.32863
3 13.0464 -9.20989 8.58601
3 13.3704 -3.02464 9.66598
3 9.44642 -2.94684 6.2968
3 9.26598 -8.51871 12.6601
4 12.0357 -12.3069 -0.715874
