421
 Atoms. Timestep: 252
4 -11.9567 11.7944 -6.21386
4 -11.9567 11.7944 6.21386
4 -11.948 6.17665 -11.9477
3 -9.15709 6.18828 -9.21886
3 -12.5989 8.8789 -8.95551
3 -9.26248 3.10111 -12.6486
4 -11.7378 6.0927 -6.02409
4 -11.6106 6.08812 -6.18957e-16
4 -11.9252 0.00643838 -6.3388
4 -11.9813 11.6714 -4.38412e-16
3 -12.5596 3.02248 -9.33288
3 -8.74803 6.16835 3.14258
3 -12.439 9.00018 3.07975
3 -12.4491 3.4162 -3.00846
3 -8.74803 6.16835 -3.14258
3 -12.439 9.00018 -3.07975
3 -9.07613 9.15742 -6.23958
3 -8.93779 3.06603 -1.18957e-15
4 -11.7378 6.0927 6.02409
4 -11.948 6.17665 11.9477
4 -11.9252 0.00643838 6.3388
3 -12.4491 3.4162 3.00846
3 -12.5596 3.02248 9.33288
3 -9.15709 6.18828 9.21886
3 -12.5989 8.8789 8.95551
3 -9.07613 9.15742 6.23958
3 -9.26248 3.10111 12.6486
4 -6.24111 11.9219 -12.0133
3 -3.10844 12.5625 -9.33047
3 -3.06762 9.30514 -12.6562
3 -9.01663 8.9553 -12.6576
4 -6.01174 11.9367 -6.3039
4 -5.78993 12.0129 -5.62037e-16
1 -6.13696 6.09894 -6.37791
2 -9.42386 9.39148 -9.4532
2 -9.25291 9.33039 -3.11923
3 -9.01 12.5761 -9.04101
3 -6.20203 9.14494 -9.28863
3 -2.70856 12.3991 3.01496
3 -9.4945 12.5562 -3.09215
3 -6.1394 9.62299 -3.12165
3 -2.70856 12.3991 -3.01496
3 -3.02923 8.91922 -8.54016e-16
3 -8.99403 9.13417 -1.20938e-15
4 -6.01174 11.9367 6.3039
4 -6.24111 11.9219 12.0133
1 -6.13696 6.09894 6.37791
2 -9.25291 9.33039 3.11923
2 -9.42386 9.39148 9.4532
3 -9.4945 12.5562 3.09215
3 -6.1394 9.62299 3.12165
3 -9.01 12.5761 9.04101
3 -6.20203 9.14494 9.28863
3 -3.10844 12.5625 9.33047
3 -3.06762 9.30514 12.6562
3 -9.01663 8.9553 12.6576
4 -0.00257381 11.7061 -6.03144
4 -0.00257381 11.7061 6.03144
4 -11.9494 -6.16376 -11.9477
4 -11.91 0.0064366 -12.0546
3 -9.15853 -6.17605 -9.21886
3 -12.5603 -3.00946 -9.33288
3 -9.01873 -8.9431 -12.6576
4 -11.7392 -6.07987 -6.02409
4 -11.612 -6.07531 -2.39644e-16
4 -11.9595 -11.7815 -6.21386
4 -12.0371 0.00645146 -1.78269e-15
3 -12.601 -8.86587 -8.95551
3 -8.74947 -6.15622 3.14258
3 -12.4499 -3.4032 3.00846
3 -12.4411 -8.98718 -3.07975
3 -8.74947 -6.15622 -3.14258
3 -12.4499 -3.4032 -3.00846
3 -9.14161 -3.02348 -6.26238
3 -8.99617 -9.12198 -6.65543e-17
4 -11.7392 -6.07987 6.02409
4 -11.9494 -6.16376 11.9477
4 -11.9595 -11.7815 6.21386
4 -11.91 0.0064366 12.0546
3 -12.4411 -8.98718 3.07975
3 -12.601 -8.86587 8.95551
3 -9.15853 -6.17605 9.21886
3 -12.5603 -3.00946 9.33288
3 -9.14161 -3.02348 6.26238
3 -9.01873 -8.9431 12.6576
4 -6.08348 0.00575589 -12.0497
4 -6.11845 6.08423 -12.0241
3 -3.07345 0.00540422 -9.33867
3 -6.1977 3.07744 -9.34138
3 -3.10648 -3.06998 -12.7282
3 -9.26321 -3.08886 -12.6486
1 -6.088 0.00575641 -6.43231
1 -6.13348 0.00576173 -1.92968e-15
1 -6.13838 -6.08742 -6.37791
1 -6.12459 6.10716 -9.52222e-16
2 -9.36213 -3.09014 -9.42786
2 -9.3614 3.10242 -9.42786
2 -9.24083 -3.0653 -3.12274
2 -9.24011 3.07755 -3.12274
3 -9.13399 0.00611228 -9.31393
3 -6.19842 -3.0659 -9.34138
3 -2.28594 0.00531222 3.26756
3 -6.1111 2.425 3.2208
3 -9.65327 0.00617295 -3.11486
3 -6.11166 -2.41348 -3.2208
3 -2.28594 0.00531222 -3.26756
3 -6.1111 2.425 -3.2208
3 -9.14091 3.03571 -6.26238
3 -3.06685 3.1054 -6.33534
3 -3.03477 -2.98566 -2.9796e-16
3 -8.93851 -3.05385 -3.22682e-16
1 -6.088 0.00575641 6.43231
4 -6.08348 0.00575589 12.0497
1 -6.13838 -6.08742 6.37791
4 -6.11845 6.08423 12.0241
2 -9.24083 -3.0653 3.12274
2 -9.24011 3.07755 3.12274
2 -9.36213 -3.09014 9.42786
2 -9.3614 3.10242 9.42786
3 -9.65327 0.00617295 3.11486
3 -6.11166 -2.41348 3.2208
3 -9.13399 0.00611228 9.31393
3 -6.19842 -3.0659 9.34138
3 -3.07345 0.00540422 9.33867
3 -6.1977 3.07744 9.34138
3 -9.14091 3.03571 6.26238
3 -3.06685 3.1054 6.33534
3 -3.10648 -3.06998 12.7282
3 -9.26321 -3.08886 12.6486
4 -0.00322569 6.12635 -12.0635
4 -0.0025426 11.9732 -11.971
3 3.0628 6.20319 -9.38151
3 -0.00286959 9.17439 -9.25194
3 3.0986 3.08007 -12.7282
3 -3.10576 3.0808 -12.7282
1 -0.00322821 6.10483 -6.47138
1 -0.00322917 6.09655 -5.29706e-16
1 -0.00394084 0.00504561 -6.54548
4 -0.0025901 11.5666 -6.02614e-16
2 -3.10194 3.10404 -9.53279
2 -3.10766 9.36332 -9.43882
2 -3.03695 3.04311 -3.16991
2 -3.06247 9.20327 -3.13091
3 -3.06924 6.20391 -9.38151
3 -0.00358108 3.08444 -9.37482
3 3.73347 6.09768 3.18729
3 -0.00293878 8.58211 3.19915
3 -3.73992 6.09856 -3.18729
3 -0.00349309 3.8375 -3.21423
3 3.73347 6.09768 -3.18729
3 -0.00293878 8.58211 -3.19915
3 -3.09093 9.10749 -6.27193
3 3.08518 9.10676 -6.27193
3 3.02689 2.99575 -9.55522e-17
3 -3.03408 2.99646 -8.29289e-16
1 -0.00322821 6.10483 6.47138
4 -0.00322569 6.12635 12.0635
1 -0.00394084 0.00504561 6.54548
4 -0.0025426 11.9732 11.971
2 -3.03695 3.04311 3.16991
2 -3.06247 9.20327 3.13091
2 -3.10194 3.10404 9.53279
2 -3.10766 9.36332 9.43882
3 -3.73992 6.09856 3.18729
3 -0.00349309 3.8375 3.21423
3 -3.06924 6.20391 9.38151
3 -0.00358108 3.08444 9.37482
3 3.0628 6.20319 9.38151
3 -0.00286959 9.17439 9.25194
3 -3.09093 9.10749 6.27193
3 3.08518 9.10676 6.27193
3 3.0986 3.08007 12.7282
3 -3.10576 3.0808 12.7282
4 6.23602 11.9204 -12.0133
3 9.00505 12.574 -9.04101
3 9.01084 8.95319 -12.6576
3 3.06191 9.30442 -12.6562
4 6.00664 11.9353 -6.3039
4 5.78486 12.0115 -6.05954e-16
1 6.1305 6.09751 -6.37791
2 3.10197 9.36259 -9.43882
2 3.05674 9.20256 -3.13091
3 3.10349 12.5618 -9.33047
3 6.19628 9.14349 -9.28863
3 9.48955 12.554 3.09215
3 2.70358 12.3985 -3.01496
3 6.13377 9.62156 -3.12165
3 9.48955 12.554 -3.09215
3 8.98828 9.13207 3.37113e-16
3 3.02343 8.91851 1.34797e-16
4 6.00664 11.9353 6.3039
4 6.23602 11.9204 12.0133
1 6.1305 6.09751 6.37791
2 3.05674 9.20256 3.13091
2 3.10197 9.36259 9.43882
3 2.70358 12.3985 3.01496
3 6.13377 9.62156 3.12165
3 3.10349 12.5618 9.33047
3 6.19628 9.14349 9.28863
3 9.00505 12.574 9.04101
3 9.01084 8.95319 12.6576
3 3.06191 9.30442 12.6562
4 11.9516 11.7916 -6.21386
4 11.9516 11.7916 6.21386
4 -11.984 -11.6585 -2.07991e-16
4 -6.2439 -11.9104 -12.0133
4 -6.11987 -6.07271 -12.0241
3 -3.11137 -12.5517 -9.33047
3 -6.20417 -9.1334 -9.28863
4 -6.01452 -11.9252 -6.3039
4 -5.79274 -12.0014 -9.70447e-16
1 -6.12601 -6.09564 -1.35859e-15
2 -9.42605 -9.37918 -9.4532
2 -9.25509 -9.31814 -3.11923
3 -9.01293 -12.5639 -9.04101
3 -2.71146 -12.3884 3.01496
3 -6.14165 -9.61147 3.12165
3 -9.49744 -12.5439 -3.09215
3 -2.71146 -12.3884 -3.01496
3 -6.14165 -9.61147 -3.12165
3 -9.07827 -9.1452 -6.23958
3 -3.09306 -9.09667 -6.27193
4 -6.01452 -11.9252 6.3039
4 -6.2439 -11.9104 12.0133
4 -6.11987 -6.07271 12.0241
2 -9.25509 -9.31814 3.11923
2 -9.42605 -9.37918 9.4532
3 -9.49744 -12.5439 3.09215
3 -9.01293 -12.5639 9.04101
3 -3.11137 -12.5517 9.33047
3 -6.20417 -9.1334 9.28863
3 -9.07827 -9.1452 6.23958
3 -3.09306 -9.09667 6.27193
4 -0.004656 -6.11626 -12.0635
4 -0.00394084 0.00504561 -12.0761
3 3.06135 -6.19382 -9.38151
3 -0.00430061 -3.07435 -9.37482
3 3.05974 -9.29505 -12.6562
3 -3.0698 -9.29433 -12.6562
1 -0.00465348 -6.09474 -6.47138
1 -0.00465251 -6.08646 -7.41921e-16
4 -0.00530787 -11.696 -6.03144
1 -0.00394084 0.00504561 -1.21918e-15
2 -3.10985 -9.3525 -9.43882
2 -3.10267 -3.09322 -9.53279
2 -3.06462 -9.19247 -3.13091
2 -3.03766 -3.03231 -3.16991
3 -3.07068 -6.1931 -9.38151
3 -0.0050121 -9.1643 -9.25194
3 3.73204 -6.08847 3.18729
3 -0.00438859 -3.82741 3.21423
3 -3.74135 -6.08759 -3.18729
3 -0.0049429 -8.57202 -3.19915
3 3.73204 -6.08847 -3.18729
3 -0.00438859 -3.82741 -3.21423
3 -3.06757 -3.0946 -6.33534
3 3.05897 -3.09531 -6.33534
3 3.02135 -8.90913 -7.24456e-16
3 -3.03131 -8.90842 -3.2438e-16
1 -0.00465348 -6.09474 6.47138
4 -0.004656 -6.11626 12.0635
4 -0.00530787 -11.696 6.03144
4 -0.00394084 0.00504561 12.0761
2 -3.06462 -9.19247 3.13091
2 -3.03766 -3.03231 3.16991
2 -3.10985 -9.3525 9.43882
2 -3.10267 -3.09322 9.53279
3 -3.74135 -6.08759 3.18729
3 -0.0049429 -8.57202 3.19915
3 -3.07068 -6.1931 9.38151
3 -0.0050121 -9.1643 9.25194
3 3.06135 -6.19382 9.38151
3 -0.00430061 -3.07435 9.37482
3 -3.06757 -3.0946 6.33534
3 3.05897 -3.09531 6.33534
3 3.05974 -9.29505 12.6562
3 -3.0698 -9.29433 12.6562
4 6.0756 0.00433533 -12.0497
4 6.11198 6.0828 -12.0241
3 9.12611 0.00397894 -9.31393
3 6.19054 3.07599 -9.34138
3 9.2546 -3.09102 -12.6486
3 3.09788 -3.07071 -12.7282
1 6.08012 0.00433481 -6.43231
1 6.1256 0.00432949 -8.63886e-16
1 6.12908 -6.08885 -6.37791
1 6.11813 6.10573 -3.86052e-16
2 3.09406 -3.09395 -9.53279
2 3.09479 3.10332 -9.53279
2 3.02907 -3.03302 -3.16991
2 3.02978 3.0424 -3.16991
3 3.06556 0.004687 -9.33867
3 6.18982 -3.06735 -9.34138
3 9.64539 0.00391828 3.11486
3 6.10378 2.42357 3.2208
3 2.27806 0.004779 -3.26756
3 6.10322 -2.41491 -3.2208
3 9.64539 0.00391828 -3.11486
3 6.10378 2.42357 -3.2208
3 3.05969 3.10469 -6.33534
3 9.13373 3.03357 -6.26238
3 8.92991 -3.05594 -7.49426e-16
3 3.02619 -2.98637 -4.99233e-16
1 6.08012 0.00433481 6.43231
4 6.0756 0.00433533 12.0497
1 6.12908 -6.08885 6.37791
4 6.11198 6.0828 12.0241
2 3.02907 -3.03302 3.16991
2 3.02978 3.0424 3.16991
2 3.09406 -3.09395 9.53279
2 3.09479 3.10332 9.53279
3 2.27806 0.004779 3.26756
3 6.10322 -2.41491 3.2208
3 3.06556 0.004687 9.33867
3 6.18982 -3.06735 9.34138
3 9.12611 0.00397894 9.31393
3 6.19054 3.07599 9.34138
3 3.05969 3.10469 6.33534
3 9.13373 3.03357 6.26238
3 9.2546 -3.09102 12.6486
3 3.09788 -3.07071 12.7282
4 11.9416 6.17386 -11.9477
3 12.5931 8.87596 -8.95551
3 9.25533 3.09895 -12.6486
4 11.7314 6.08996 -6.02409
4 11.6041 6.0854 2.80427e-16
4 11.9174 0.00365284 -6.3388
4 11.9761 11.6686 -4.92332e-16
2 9.35425 3.10023 -9.42786
2 9.41817 9.38928 -9.4532
2 9.23295 3.07539 -3.12274
2 9.24721 9.32823 -3.11923
3 9.15065 6.18614 -9.21886
3 12.5524 3.01955 -9.33288
3 12.4332 8.99727 3.07975
3 8.74159 6.16631 -3.14258
3 12.442 3.41329 -3.00846
3 12.4332 8.99727 -3.07975
3 9.07039 9.1553 -6.23958
3 8.93063 3.06394 5.27409e-16
4 11.7314 6.08996 6.02409
4 11.9416 6.17386 11.9477
4 11.9174 0.00365284 6.3388
2 9.23295 3.07539 3.12274
2 9.24721 9.32823 3.11923
2 9.35425 3.10023 9.42786
2 9.41817 9.38928 9.4532
3 8.74159 6.16631 3.14258
3 12.442 3.41329 3.00846
3 9.15065 6.18614 9.21886
3 12.5524 3.01955 9.33288
3 12.5931 8.87596 8.95551
3 9.07039 9.1553 6.23958
3 9.25533 3.09895 12.6486
4 -0.00533909 -11.9631 -11.971
4 -0.00529158 -11.5565 -5.4867e-16
4 -0.00533909 -11.9631 11.971
4 6.23323 -11.9118 -12.0133
4 6.11056 -6.07414 -12.0241
3 9.00211 -12.566 -9.04101
3 6.19415 -9.13485 -9.28863
4 6.00385 -11.9266 -6.3039
4 5.78205 -12.0028 -5.21674e-16
1 6.11671 -6.09707 -6.15454e-16
2 3.09978 -9.35323 -9.43882
2 3.05459 -9.19318 -3.13091
3 3.10056 -12.5524 -9.33047
3 9.48662 -12.5461 3.09215
3 6.13152 -9.6129 3.12165
3 2.70068 -12.389 -3.01496
3 9.48662 -12.5461 -3.09215
3 6.13152 -9.6129 -3.12165
3 3.08305 -9.09739 -6.27193
3 9.06825 -9.14732 -6.23958
4 6.00385 -11.9266 6.3039
4 6.23323 -11.9118 12.0133
4 6.11056 -6.07414 12.0241
2 3.05459 -9.19318 3.13091
2 3.09978 -9.35323 9.43882
3 2.70068 -12.389 3.01496
3 3.10056 -12.5524 9.33047
3 9.00211 -12.566 9.04101
3 6.19415 -9.13485 9.28863
3 3.08305 -9.09739 6.27193
3 9.06825 -9.14732 6.23958
4 11.9401 -6.16656 -11.9477
4 11.9021 0.00365462 -12.0546
3 12.5517 -3.01239 -9.33288
3 9.00875 -8.94521 -12.6576
4 11.7299 -6.08261 -6.02409
4 11.6027 -6.07802 3.77386e-16
4 11.9488 -11.7843 -6.21386
4 12.0292 0.00363978 -1.04707e-15
2 9.41598 -9.38139 -9.4532
2 9.35352 -3.09233 -9.42786
2 9.24503 -9.3203 -3.11923
2 9.23223 -3.06746 -3.12274
3 9.1492 -6.17819 -9.21886
3 12.5911 -8.86881 -8.95551
3 12.4412 -3.40611 3.00846
3 8.74015 -6.15826 -3.14258
3 12.4311 -8.99009 -3.07975
3 12.4412 -3.40611 -3.00846
3 9.13302 -3.02562 -6.26238
3 8.98615 -9.12408 -7.12226e-16
4 11.7299 -6.08261 6.02409
4 11.9401 -6.16656 11.9477
4 11.9488 -11.7843 6.21386
4 11.9021 0.00365462 12.0546
2 9.24503 -9.3203 3.11923
2 9.23223 -3.06746 3.12274
2 9.41598 -9.38139 9.4532
2 9.35352 -3.09233 9.42786
3 8.74015 -6.15826 3.14258
3 12.4311 -8.99009 3.07975
3 9.1492 -6.17819 9.21886
3 12.5911 -8.86881 8.95551
3 12.5517 -3.01239 9.33288
3 9.13302 -3.02562 6.26238
3 9.00875 -8.94521 12.6576
4 11.9734 -11.6613 7.90197e-16
