2023
 Atoms. Timestep: 110748
3 -17.1351 20.9828 -17.3498
3 -16.7974 17.4328 -20.6355
4 -20.4301 19.9104 -14.5785
4 -20.3273 19.633 -8.61007
4 -20.2063 15.1945 -14.7491
3 -20.3972 17.8512 -17.4822
3 -17.8228 20.7479 -6.17186
3 -20.38 17.514 -11.579
3 -17.7533 20.9611 -10.9276
3 -17.2326 17.3749 -8.47923
4 -17.2214 21.0425 -2.67644
4 -16.3528 20.9676 2.97743
4 -19.989 14.2565 -3.57074
3 -20.7959 17.3318 -5.89566
3 -17.7589 21.1335 6.60436
3 -19.0228 20.1532 0.244422
3 -15.101 22.5641 0.0193792
3 -17.6367 17.327 3.22774
4 -20.0509 19.3648 8.80734
4 -19.6867 20.4027 14.4118
4 -20.1525 14.6211 8.55008
3 -20.6996 17.1924 6.09828
3 -17.2104 20.5962 17.2708
3 -20.4762 17.2098 11.6548
3 -17.713 20.3416 11.5364
3 -17.3898 17.524 14.6283
4 -19.1225 14.3325 21.0306
3 -20.7807 17.6506 17.4223
4 -14.3791 20.0797 -14.7677
4 -13.6512 20.5862 -2.72058
4 -14.6698 19.888 9.03699
4 -14.6643 20.121 20.2638
4 -20.0465 9.27608 -20.1133
4 -19.6578 15.3112 -19.8872
3 -17.8467 9.03002 -17.3662
3 -20.6813 12.3208 -17.9687
3 -17.4616 6.23713 -20.5504
4 -20.3349 8.84316 -14.3619
4 -19.9852 8.64987 -8.64542
4 -19.6746 2.68686 -14.4858
4 -19.4738 14.6148 -8.68427
3 -20.8661 6.20512 -18.1505
3 -17.3007 8.72037 -5.86069
3 -20.5351 11.5505 -6.14829
3 -20.6538 5.90433 -11.3668
3 -17.5887 8.98746 -11.7341
3 -20.4172 11.5598 -11.1574
3 -18.0128 12.0667 -14.5679
3 -17.3517 6.26309 -8.91712
4 -20.0913 8.67365 -3.22435
4 -20.0359 8.83936 3.35135
4 -20.0129 2.43443 -2.18493
4 -20.4869 14.2389 3.38287
3 -20.644 6.16085 -5.97751
3 -17.6267 8.80914 6.39876
3 -20.7071 11.7042 6.15476
3 -20.9434 5.87225 -0.00164287
3 -17.8864 8.76212 -0.110794
3 -20.365 12.7461 -0.0541294
3 -17.422 11.7484 -2.89342
3 -17.4572 6.01574 3.26441
4 -20.4669 9.26885 8.60394
4 -20.5366 8.26001 15.102
4 -20.1816 2.49332 8.41315
4 -19.9711 14.852 14.7227
3 -20.9512 5.63375 5.37397
3 -17.4901 8.74724 17.6194
3 -20.5057 11.2297 18.659
3 -20.4011 5.71508 12.6621
3 -17.4844 8.62969 11.8511
3 -20.7686 12.099 11.6373
3 -17.2887 11.7798 9.07227
3 -16.967 5.64286 14.7473
4 -19.2407 8.15546 20.8242
4 -20.0325 2.88098 20.0393
3 -20.4301 5.81054 18.1002
3 -17.1147 11.4361 21.058
4 -14.2654 14.6829 -19.7572
4 -14.2204 20.1508 -19.8991
3 -11.5169 14.6614 -16.9879
3 -14.4487 17.6497 -17.3475
3 -11.789 11.6669 -20.581
3 -17.188 11.9446 -20.4929
1 -14.4507 15.0414 -14.3848
1 -14.5351 14.3822 -8.97255
1 -14.7871 9.21559 -14.8444
4 -14.6275 19.8677 -8.33342
2 -17.7153 12.0373 -17.4848
2 -17.3508 18.0751 -17.6537
2 -17.5964 12.0331 -11.8286
2 -17.362 18.0909 -11.2824
3 -17.3139 14.9628 -17.1851
3 -14.6567 11.9183 -17.3704
3 -11.6893 14.7623 -5.81715
3 -14.8038 18.089 -4.80421
3 -17.3115 14.8591 -11.6683
3 -14.449 11.7873 -12.065
3 -11.8512 14.8156 -11.2343
3 -14.5714 17.9664 -11.8068
3 -17.4454 17.8703 -14.5264
3 -11.677 17.7521 -14.5373
3 -12.161 11.6507 -8.74312
3 -16.9991 11.5888 -8.83145
1 -14.8656 14.6522 -2.82398
1 -14.8689 14.1941 3.30171
1 -15.1811 8.79464 -2.54556
4 -12.9818 21.1765 2.93106
2 -17.5055 11.6188 -5.79634
2 -17.7277 17.7058 -5.55003
2 -17.6845 11.7255 0.0926962
2 -17.7082 17.4067 0.321141
3 -17.2509 14.4956 -6.01007
3 -14.5961 11.8143 -5.33017
3 -12.2238 14.649 6.06088
3 -14.6744 18.5158 5.53656
3 -16.9549 14.6978 0.289033
3 -14.6659 11.4949 0.339594
3 -12.7394 14.7902 0.268253
3 -15.0898 18.5594 0.311202
3 -17.8254 17.1607 -2.68248
3 -11.6968 17.6001 -2.59168
3 -11.5484 12.0157 3.21509
3 -17.9622 11.6731 3.03867
1 -14.3682 14.2515 9.13608
1 -14.6365 14.5594 14.6156
1 -14.7645 8.98655 9.0191
4 -14.6082 19.9656 14.7031
2 -17.7201 11.8945 5.98216
2 -17.4706 17.7443 6.03574
2 -17.8485 11.6379 11.9476
2 -17.5063 17.4103 11.732
3 -17.2578 14.7415 6.09803
3 -14.7257 11.4764 5.68134
3 -11.7336 14.3864 17.4796
3 -14.6425 17.4411 17.8527
3 -17.201 14.5147 12.0795
3 -14.5039 11.6651 11.8658
3 -11.9508 14.462 12.0543
3 -14.5243 17.4785 12.2375
3 -17.1742 17.3479 8.97747
3 -11.5655 17.3127 9.10193
3 -11.8685 11.4258 14.8861
3 -18.26 11.4522 14.8749
4 -14.9584 14.4891 20.214
4 -14.5942 8.70092 20.3219
2 -17.7615 11.7678 17.7774
2 -17.6361 17.7373 17.7407
3 -17.6243 14.7322 17.4673
3 -14.7842 11.6706 17.3772
3 -17.1562 17.4176 20.8513
3 -11.6537 17.5974 20.7788
4 -8.851 19.5047 -19.7256
3 -5.7223 20.7163 -17.6569
3 -5.78016 17.3736 -20.4608
3 -11.7994 17.2213 -20.4217
4 -8.58164 20.1764 -14.1477
4 -8.68633 20.1003 -9.00011
1 -8.28161 14.6203 -14.2749
2 -11.5879 17.5448 -17.3251
2 -11.7369 17.7386 -11.4034
3 -11.3565 20.6372 -17.5042
3 -8.65491 17.3838 -16.7127
3 -5.74371 20.715 -5.86381
3 -11.362 20.8708 -11.9054
3 -8.69168 17.3162 -11.6655
3 -6.03921 20.8892 -11.7883
3 -5.66207 17.9739 -8.5912
3 -12.0149 17.6193 -8.61982
4 -8.66988 20.0811 -3.21917
4 -8.85547 19.9655 2.77434
1 -8.90357 14.7646 -2.80963
2 -11.7442 17.6704 -5.72831
2 -12.0975 17.8299 0.294491
3 -11.746 20.5031 -5.96029
3 -8.83211 17.7977 -6.04191
3 -5.85486 20.7832 6.64949
3 -11.0125 20.6351 -0.109997
3 -9.12587 16.8726 0.249559
3 -5.85477 20.6651 -0.225496
3 -5.80713 17.5043 3.10722
3 -11.6649 17.7046 3.10885
4 -8.79474 19.6956 8.97419
4 -9.03855 19.7724 14.6623
1 -8.09491 14.4765 9.00585
2 -11.6447 17.5453 6.12
2 -11.4925 17.5069 11.9621
3 -11.0749 20.5018 5.9557
3 -8.69972 17.3695 5.7488
3 -5.99166 20.3188 17.4174
3 -11.8185 20.3379 11.6659
3 -8.65818 16.8074 12.1786
3 -6.36036 20.4138 11.9973
3 -5.72801 17.1227 14.7958
3 -11.4138 17.2582 14.931
4 -9.06432 20.1041 19.9563
4 -8.84964 14.2989 19.9562
2 -11.8262 17.6032 17.8227
3 -11.8954 20.8332 17.503
3 -8.93493 17.2258 17.7329
4 -2.70103 20.2733 -15.0827
4 -3.25207 19.7445 -2.82987
4 -2.7932 20.0854 8.84496
4 -2.60046 19.9623 19.9587
4 -19.26 -2.98024 -20.192
4 -20.2342 2.90261 -19.9275
3 -16.9863 -2.76035 -17.3952
3 -20.4137 -0.094856 -18.1335
3 -16.9386 -5.59553 -20.8296
4 -19.8528 -2.77396 -14.4679
4 -19.9409 -3.25794 -8.54002
4 -20.3945 -8.9319 -15.276
4 -20.359 2.95204 -8.6581
3 -20.3595 -5.59145 -18.1528
3 -17.1879 -3.20358 -5.89544
3 -20.4139 -0.313495 -5.29022
3 -20.9116 -5.30984 -11.6844
3 -17.1793 -3.21987 -11.6929
3 -20.4681 0.0907847 -11.9553
3 -17.1729 0.0910794 -14.3292
3 -17.4038 -6.2053 -8.69623
4 -19.8313 -3.60192 -2.75237
4 -20.1906 -2.73944 2.97853
4 -19.7736 -8.96621 -2.88231
4 -19.8901 2.88907 3.0418
3 -20.333 -6.03067 -5.42561
3 -17.6918 -2.90136 5.71323
3 -21.0488 -0.190534 5.50279
3 -20.4256 -6.00484 -0.0118337
3 -17.4553 -2.89795 0.0471615
3 -20.8116 0.0699774 0.326693
3 -17.1689 -0.109553 -3.00493
3 -17.6023 -5.65216 3.05333
4 -20.0057 -2.97983 8.92232
4 -20.0917 -3.33643 14.5645
4 -19.6522 -8.65988 8.89602
4 -19.6665 2.66949 14.362
3 -20.6377 -5.78592 6.1343
3 -17.5695 -2.95739 17.2795
3 -20.6022 -0.235236 17.3243
3 -20.528 -6.02984 11.7223
3 -17.452 -2.89765 12.0436
3 -20.4959 0.0223747 11.4501
3 -17.6374 -0.151647 8.61849
3 -17.1823 -5.73089 14.6033
4 -19.8583 -2.81696 19.8701
4 -20.2879 -8.78455 19.3829
3 -20.6875 -5.79691 17.0089
3 -17.6148 0.0870691 20.4375
4 -13.9904 3.02039 -19.5306
4 -14.4552 9.11465 -19.8695
3 -11.4928 2.86981 -16.99
3 -14.8714 6.11996 -16.9412
3 -10.7761 -0.0775131 -20.0539
3 -17.0341 0.00506226 -20.3916
1 -14.5863 2.7044 -14.3109
1 -14.0651 3.05312 -8.88503
1 -14.2746 -3.28229 -14.6864
1 -14.6216 8.55276 -9.08626
2 -17.3144 0.0196426 -17.3323
2 -17.748 6.09517 -17.6153
2 -17.4457 -0.229418 -11.4239
2 -17.7784 6.04336 -11.7911
3 -17.4016 3.22631 -17.4336
3 -14.3955 0.351677 -17.3416
3 -11.4177 2.92638 -6.16553
3 -14.7902 5.41918 -5.81587
3 -17.448 3.21131 -11.4947
3 -14.4729 0.285588 -11.1734
3 -11.3664 2.87575 -11.6886
3 -14.575 6.05118 -12.1671
3 -18.1234 6.0128 -14.8619
3 -11.0675 5.75618 -14.6126
3 -11.07 -0.322061 -8.77695
3 -17.6995 -0.469175 -8.62065
1 -14.9461 2.85117 -2.9755
1 -14.5888 2.59853 2.90338
1 -14.7544 -3.00094 -2.81162
1 -14.6901 8.65737 3.04368
2 -17.6306 0.0620731 -5.78603
2 -17.7471 5.85566 -5.81868
2 -17.7139 0.123392 -0.0825937
2 -17.9056 5.97486 0.155892
3 -17.9318 2.96741 -5.85934
3 -14.6685 0.222712 -6.16367
3 -12.0754 2.99105 6.2198
3 -14.7787 5.74435 6.55157
3 -17.2798 3.01228 0.104224
3 -14.6361 -0.309565 -0.0303534
3 -11.9493 2.95773 0.125866
3 -14.928 6.46318 0.20571
3 -17.7897 5.79554 -2.8467
3 -12.1531 5.80436 -2.84974
3 -11.7305 0.244808 2.80912
3 -17.4875 -0.0889807 2.83861
1 -14.716 2.64571 8.49475
1 -14.308 2.78191 14.2147
1 -14.5711 -3.2385 8.96775
1 -14.7176 8.72868 14.7147
2 -18.0236 -0.0261576 5.7107
2 -17.6712 5.81296 5.99087
2 -17.482 0.0076169 11.5312
2 -17.5489 5.77038 11.4018
3 -17.4619 2.74288 5.62394
3 -14.7058 -0.0175141 5.9992
3 -11.396 2.7825 17.2961
3 -14.4974 5.90036 17.7046
3 -17.4756 3.01308 11.548
3 -14.593 -0.23814 11.3922
3 -12.0591 2.64951 10.9065
3 -14.6216 5.65208 10.8894
3 -18.6982 5.69587 8.71006
3 -11.2102 5.98185 8.61191
3 -11.9527 -0.0514752 14.4863
3 -17.1362 0.196484 14.3864
4 -14.2944 2.83833 19.9309
4 -14.8648 -2.73593 20.0114
2 -17.4343 0.0040761 17.2937
2 -17.4135 5.7503 17.5696
3 -17.349 2.85514 17.4401
3 -14.5541 -0.103733 17.6465
3 -17.0133 5.30153 20.6381
3 -11.7744 5.15361 20.6934
4 -8.9977 8.73387 -20.1406
4 -8.93547 14.3451 -19.672
3 -6.01214 8.80941 -17.2569
3 -8.92571 11.2729 -17.545
3 -5.90349 5.63713 -20.3673
3 -12.2879 6.09205 -20.5391
1 -9.13448 8.89458 -14.3845
1 -9.17336 8.73407 -8.62186
1 -8.52121 3.28616 -14.198
1 -8.42574 14.8446 -8.81686
2 -12.0529 5.61514 -17.6123
2 -11.7475 11.6404 -17.4057
2 -11.6968 5.83091 -11.8358
2 -11.5194 11.5911 -11.601
3 -11.7626 8.67451 -17.3866
3 -8.90431 6.03137 -17.7789
3 -5.15175 8.9474 -5.90701
3 -8.8803 11.822 -6.35643
3 -11.4886 8.71022 -11.5664
3 -8.73064 5.79521 -11.2587
3 -6.32855 8.75034 -11.3655
3 -8.80087 12.3491 -11.4892
3 -11.6866 11.362 -14.6201
3 -6.21159 11.6062 -14.3718
3 -5.57628 5.6991 -8.58162
3 -11.9488 5.83865 -8.89091
1 -9.39778 8.75762 -2.51842
1 -9.20015 9.28274 3.01025
1 -9.26576 3.21228 -3.1594
1 -8.53292 14.7073 3.09054
2 -11.8579 5.73742 -5.87957
2 -11.7584 11.8096 -5.65928
2 -12.0322 6.00546 0.0228142
2 -11.7484 12.007 0.188539
3 -11.8831 8.68474 -5.69577
3 -8.93355 6.09094 -5.88142
3 -6.27833 8.79756 5.16051
3 -8.89913 12.1392 5.90696
3 -11.5224 8.95612 0.163383
3 -9.10411 5.75371 -0.0713386
3 -6.32123 8.86058 0.555787
3 -9.02017 12.3719 0.104266
3 -11.5949 11.7735 -2.7873
3 -6.75039 11.5739 -2.82488
3 -5.40468 5.25597 2.76293
3 -12.2758 5.80406 2.91173
1 -8.86475 9.09878 8.57442
1 -8.88997 9.00238 14.617
1 -8.92965 2.79701 8.49719
1 -8.82653 14.7687 15.1202
2 -11.7828 5.73536 5.8445
2 -11.9177 11.6936 6.10081
2 -11.7108 5.45377 11.5039
2 -11.6362 11.4539 11.843
3 -11.7261 8.81208 5.76921
3 -8.86555 5.81248 5.07988
3 -5.97943 8.81906 17.1291
3 -8.78667 11.5944 17.3854
3 -11.3089 8.60348 11.5424
3 -8.73633 4.80041 11.8461
3 -6.73413 8.74489 11.7808
3 -8.69029 12.0069 11.682
3 -11.9466 11.2616 8.88231
3 -5.90115 11.2526 8.67164
3 -5.7483 5.55973 14.4645
3 -12.1222 5.80508 14.4858
4 -8.41384 8.82996 20.0088
4 -8.95191 2.66503 20.081
2 -11.5927 5.69058 17.6743
2 -11.8995 11.6054 17.8052
3 -11.7801 8.58535 18.0811
3 -8.77329 5.88345 17.6633
3 -12.3357 11.8757 20.6518
3 -5.98704 11.6365 20.7326
4 -2.96048 14.2752 -20.0588
4 -2.81042 19.944 -20.0036
3 0.00753805 14.6978 -17.4891
3 -2.95188 17.2922 -17.5326
3 -0.401279 11.8037 -20.4617
3 -5.66308 11.8414 -20.4104
1 -3.24737 14.6391 -14.6538
1 -2.91684 14.7923 -8.39113
1 -2.91872 8.71408 -14.7574
4 -2.63335 20.3053 -8.70774
2 -5.92423 11.6817 -17.2715
2 -5.77866 17.6896 -17.5062
2 -5.84145 11.4502 -11.6615
2 -5.6381 17.8415 -11.4739
3 -5.97926 14.8015 -17.2799
3 -3.10603 11.8507 -17.1137
3 0.0178532 14.3723 -5.33757
3 -2.85564 17.5696 -5.9704
3 -5.68893 14.63 -11.7275
3 -2.89275 11.1858 -11.84
3 -0.588086 14.544 -11.73
3 -2.78711 17.6121 -11.4636
3 -5.35498 17.7984 -14.4276
3 -0.0299991 17.6056 -14.6113
3 -0.241206 11.9435 -8.73913
3 -5.59844 12.2143 -8.52993
1 -3.04602 14.4493 -2.81008
1 -2.81074 14.936 3.04689
1 -2.93609 8.64021 -3.1155
4 -2.70512 20.1098 3.51939
2 -5.85947 11.884 -5.71569
2 -6.0151 17.7314 -5.64219
2 -6.0745 11.9248 0.010173
2 -6.14457 17.6145 0.161676
3 -6.31128 14.6555 -5.68423
3 -2.97923 12.0415 -5.25638
3 -0.321731 14.7164 6.14813
3 -2.83941 17.6065 6.17227
3 -5.59734 14.8073 0.129933
3 -3.17977 11.3949 -0.404098
3 -0.0846912 14.5191 -0.0892951
3 -3.13529 17.6138 -0.0139039
3 -6.34805 17.5618 -2.77534
3 -0.534289 17.4034 -2.96857
3 -0.511996 11.9219 2.96017
3 -5.07266 12.1336 2.84073
1 -2.81421 14.8143 8.81566
1 -3.01375 14.539 14.6426
1 -2.93656 8.99985 8.56659
4 -2.81342 20.0064 14.7474
2 -5.83217 11.7115 5.7019
2 -5.78185 17.7075 6.03371
2 -5.77392 11.4359 11.6429
2 -5.68466 17.235 11.8203
3 -5.68629 14.6816 6.02786
3 -2.96031 11.561 5.88677
3 0.000367728 14.5628 17.9767
3 -2.78455 17.4005 17.4658
3 -5.4861 14.2668 11.3864
3 -2.68604 10.6602 11.9776
3 -0.623638 14.5198 11.9826
3 -2.86363 17.8515 11.8261
3 -5.94009 17.3287 9.05803
3 0.0869325 17.5098 8.8515
3 0.0966655 12.0973 14.8267
3 -5.76765 12.083 14.6812
4 -2.75169 14.1004 20.3592
4 -3.16443 8.52031 19.7956
2 -5.75069 11.6708 17.555
2 -5.71149 17.4173 17.7114
3 -5.81892 14.5157 17.9626
3 -2.99658 11.8972 17.2031
3 -5.44492 17.4568 20.5493
3 0.529019 17.683 20.8276
4 3.1537 20.2625 -19.5032
3 6.05958 20.847 -17.1563
3 5.89233 17.992 -20.2687
3 0.234219 17.8265 -20.5801
4 2.97706 20.0066 -14.3924
4 2.86909 19.9251 -8.53954
1 3.08835 14.3105 -13.9969
2 -0.0679245 17.6068 -17.6415
2 0.148325 17.5096 -11.7062
3 1.42622e-05 20.5242 -17.5698
3 2.9388 17.4716 -17.2208
3 5.26996 20.5649 -5.63936
3 0.0318614 20.6231 -11.9998
3 2.88407 17.1176 -11.8276
3 5.4576 20.6054 -11.5164
3 5.50752 17.4617 -8.85725
3 -0.00461733 17.556 -8.59418
4 2.87577 19.6802 -2.79547
4 2.99809 19.8367 3.3341
1 2.88919 14.3809 -2.93667
2 0.143634 17.496 -5.6862
2 -0.260266 17.583 -0.0395967
3 0.404461 20.5117 -5.52823
3 2.99293 17.2451 -5.74063
3 5.34236 20.5029 5.9928
3 0.382064 20.399 0.482104
3 2.69153 17.3153 0.0313276
3 5.70022 20.5351 0.212238
3 5.59306 17.4016 2.90883
3 -0.230398 17.5378 3.04933
4 2.95862 19.9457 9.08039
4 2.77009 19.753 14.3923
1 2.66469 14.6546 8.89443
2 0.0809004 17.5386 5.96209
2 0.041701 17.3957 11.7859
3 0.283046 20.6642 6.06385
3 2.93631 17.1082 5.81177
3 6.00756 20.6804 17.7557
3 0.141079 20.4566 11.9393
3 2.91415 17.2658 11.665
3 5.61541 20.3264 11.6474
3 5.88942 17.4466 14.5449
3 0.294587 17.1295 14.7388
4 3.31186 19.8854 20.2855
4 3.07961 14.9007 20.0204
2 0.239746 17.4274 17.8993
3 0.575972 20.5573 17.8685
3 3.17761 17.3639 17.3996
4 8.72178 19.9186 -14.4945
4 8.72175 20.3035 -3.2676
4 8.5192 20.2816 8.55547
4 8.86169 19.8917 20.0752
4 -19.591 -14.1679 -20.503
4 -19.3609 -8.38435 -20.4692
3 -17.2037 -14.5773 -17.8532
3 -20.2565 -11.4955 -17.9584
3 -16.8816 -17.1909 -20.8819
4 -19.9273 -14.3421 -15.5249
4 -20.1305 -14.3059 -8.36616
4 -17.0786 -20.5311 -13.7429
4 -20.0144 -9.00553 -8.26077
3 -20.5171 -16.9348 -18.2708
3 -16.8754 -14.8545 -6.00417
3 -20.4185 -11.7145 -5.76157
3 -20.0812 -19.3877 -12.2158
3 -16.413 -14.3956 -11.9382
3 -20.4348 -14.2801 -12.1156
3 -17.4689 -11.6166 -14.8375
3 -17.7512 -17.2562 -9.17479
4 -19.884 -14.645 -3.28007
4 -19.8998 -14.3803 2.57485
4 -20.0958 -19.6091 -3.06623
4 -19.8754 -8.54366 3.44758
3 -20.3718 -17.128 -6.01642
3 -18.0621 -14.2556 5.71691
3 -20.5046 -11.3478 6.25586
3 -20.594 -17.3178 -0.262769
3 -17.6823 -14.518 -0.239918
3 -20.6676 -11.4634 -0.0182895
3 -17.3336 -11.671 -2.94534
3 -17.6313 -17.2374 2.82406
4 -19.997 -14.1145 8.7175
4 -20.048 -14.7244 14.3183
4 -20.0169 -19.7545 8.76387
4 -19.9957 -9.10801 14.7428
3 -20.876 -17.8152 5.88956
3 -17.5117 -14.6895 17.2695
3 -20.705 -11.9601 17.1883
3 -20.7071 -17.3493 11.5495
3 -17.5483 -14.7147 11.6142
3 -20.2909 -11.9372 12.0161
3 -17.358 -11.549 8.90786
3 -17.4304 -17.4488 14.5264
4 -20.9152 -14.9472 19.3005
3 -20.8303 -17.8864 17.0556
3 -18.2446 -11.8132 20.6019
4 -14.2939 -8.83366 -20.3403
4 -14.4579 -2.98698 -20.0301
3 -11.5834 -8.86295 -17.9026
3 -14.368 -5.77156 -17.516
3 -11.7757 -12.1823 -20.6619
3 -17.1613 -11.4238 -20.888
1 -14.2689 -8.40406 -15.2291
1 -14.2997 -8.65153 -8.96981
1 -14.5572 -14.5201 -15.2064
1 -14.5206 -3.1194 -8.48273
2 -17.2659 -11.6081 -17.8076
2 -17.118 -5.72441 -17.7527
2 -17.1831 -11.567 -11.8842
2 -17.6118 -6.23795 -11.6447
3 -17.1971 -8.6631 -17.5222
3 -14.4859 -11.5943 -17.6654
3 -11.1787 -8.95499 -6.0486
3 -14.404 -6.35626 -6.25134
3 -18.5525 -9.01925 -12.0331
3 -14.5145 -10.492 -12.127
3 -11.1399 -8.78342 -11.4796
3 -14.7584 -6.70031 -12.1698
3 -17.7236 -5.8937 -14.8134
3 -11.5252 -5.87178 -14.7468
3 -11.9944 -11.8661 -8.99065
3 -17.602 -11.8543 -8.91959
1 -14.4211 -9.14566 -2.70878
1 -14.3133 -8.54766 3.07335
1 -14.6514 -14.6249 -2.96229
1 -14.7852 -2.68703 3.03664
2 -17.1874 -11.8365 -5.94156
2 -17.473 -6.13489 -5.86626
2 -17.7708 -11.6241 0.0441288
2 -17.4952 -5.95568 0.310016
3 -17.3716 -8.94701 -5.83011
3 -14.441 -11.3686 -5.64835
3 -11.8205 -8.77357 6.15452
3 -14.5821 -5.73103 5.92945
3 -16.8625 -8.79148 0.358974
3 -14.7346 -11.9957 -0.0496958
3 -11.943 -8.70497 0.302217
3 -14.5919 -5.74083 0.857678
3 -16.9931 -6.0104 -2.72484
3 -11.9178 -6.44901 -2.72658
3 -11.9608 -11.6522 2.98739
3 -17.6285 -11.4613 2.96456
1 -14.7169 -8.86372 8.80096
1 -14.4794 -8.82099 14.669
1 -14.5916 -14.5379 8.8949
1 -14.5716 -3.35854 14.5842
2 -17.5469 -11.47 5.87989
2 -17.7205 -5.64005 5.89753
2 -17.3988 -11.8316 11.9177
2 -17.5179 -5.82403 11.7857
3 -17.3804 -8.65966 6.21839
3 -14.5613 -11.7734 6.07087
3 -11.7231 -8.76075 17.6288
3 -14.728 -5.70307 17.4824
3 -17.2844 -8.91231 11.7166
3 -14.3843 -11.7792 11.5552
3 -11.9191 -8.79695 11.3149
3 -14.5675 -5.81177 11.8194
3 -17.2697 -5.61129 8.80446
3 -11.8741 -5.79341 8.87631
3 -11.7265 -11.5132 14.4812
3 -17.0832 -11.6969 14.747
4 -14.7302 -8.26653 20.1999
4 -14.6835 -15.1979 19.9341
2 -17.5797 -11.7574 17.8094
2 -17.7187 -5.96807 17.4534
3 -17.449 -8.91954 17.212
3 -14.5834 -12.0471 17.9015
3 -18.0177 -6.11513 20.3424
3 -12.3366 -5.45623 20.578
4 -8.08481 -2.53855 -19.7413
4 -8.51546 2.71451 -19.1963
3 -5.27059 -2.75005 -17.069
3 -8.15993 -0.117423 -16.801
3 -5.63252 -5.60737 -20.6231
3 -10.8597 -6.56841 -20.9192
1 -8.50495 -3.32787 -14.807
1 -8.6883 -2.91898 -8.86655
1 -8.77532 -8.4718 -14.9772
1 -8.56964 3.18963 -8.37391
2 -11.5871 -5.89235 -17.9369
2 -11.1589 -0.0549139 -17.1499
2 -11.8027 -6.06567 -11.639
2 -11.7213 -0.0445261 -11.6187
3 -11.3371 -3.09943 -17.7033
3 -8.67853 -5.83692 -17.6182
3 -5.64485 -3.11751 -5.50262
3 -8.66386 -0.36479 -5.40043
3 -12.2444 -3.17602 -11.8819
3 -8.76323 -5.68688 -12.0923
3 -5.44976 -3.18021 -11.4401
3 -8.65992 -0.852659 -12.021
3 -12.0058 -0.336686 -14.4433
3 -4.766 -0.419192 -14.261
3 -5.91006 -6.0187 -8.5201
3 -11.1029 -5.77103 -8.85231
1 -8.68818 -2.9515 -2.80605
1 -9.21609 -2.77547 3.11721
1 -8.82414 -8.82803 -3.04847
1 -9.18208 3.18801 2.62987
2 -11.5905 -6.07007 -5.89643
2 -11.6074 -0.0349202 -6.06782
2 -11.6515 -5.76261 0.0583469
2 -11.7963 0.117038 -0.133002
3 -11.8101 -3.12195 -5.35089
3 -8.66806 -5.98262 -5.3767
3 -6.19674 -2.93708 5.53635
3 -8.91871 0.741856 5.51729
3 -11.6294 -2.87414 0.0921122
3 -8.56601 -6.14816 -0.787334
3 -6.5228 -2.61156 0.765995
3 -8.84182 0.306371 -0.257153
3 -12.1039 0.249609 -3.30347
3 -5.39241 -0.147125 -2.91258
3 -6.09184 -6.487 2.79125
3 -11.1338 -5.75815 2.98335
1 -8.70372 -3.56841 8.68197
1 -8.84505 -2.84859 14.7442
1 -8.59145 -8.92731 8.75641
1 -8.76783 2.84975 14.9454
2 -11.7078 -5.76327 5.85417
2 -11.8559 0.024297 5.6746
2 -11.6326 -6.06046 11.7391
2 -11.6349 -0.188779 11.3996
3 -12.017 -2.86588 5.55925
3 -8.87423 -6.0749 6.19414
3 -5.83213 -2.76299 17.4639
3 -8.93207 -0.0112214 17.4508
3 -11.2241 -2.96776 11.8215
3 -8.69409 -6.47255 11.5752
3 -6.61732 -2.91949 11.7529
3 -8.83217 0.580402 11.9788
3 -11.4741 -0.241466 8.40423
3 -6.2564 -0.54495 8.72614
3 -6.05689 -5.53689 14.6808
3 -11.6043 -5.85563 14.688
4 -8.94676 -2.85439 19.8553
4 -8.49968 -8.528 19.9391
2 -11.7527 -5.87209 17.7415
2 -11.6415 -0.221634 17.4733
3 -11.7025 -3.07604 17.3262
3 -8.87621 -5.85146 17.4324
3 -11.7839 0.0270744 20.4226
3 -6.35326 -0.5432 20.9216
4 -2.86784 3.24025 -20.0298
4 -3.1119 8.68388 -19.7599
3 -0.0469723 2.92935 -17.3565
3 -2.93787 5.81761 -17.0564
3 0.277166 -0.607316 -20.9396
3 -6.00195 0.435031 -20.5243
1 -2.60741 2.96092 -14.5342
1 -2.94567 3.1955 -8.67078
1 -2.80026 -3.49676 -14.1216
1 -2.87682 8.52984 -9.0035
2 -5.39177 0.133254 -17.4702
2 -5.95677 5.82119 -17.4092
2 -5.91083 -0.332512 -11.6819
2 -5.87656 5.84288 -11.4343
3 -5.73191 2.96971 -16.9752
3 -2.60192 0.0349176 -18.3854
3 0.363526 2.79262 -5.51019
3 -2.83228 5.6348 -5.62799
3 -5.66254 2.83901 -11.8392
3 -3.13796 0.144779 -10.5865
3 0.0214692 2.89877 -12.2486
3 -2.88711 6.23195 -11.8092
3 -6.13569 6.15203 -14.3753
3 0.549546 5.90328 -14.671
3 0.490645 0.315984 -8.75499
3 -6.48884 -0.228328 -8.6883
1 -2.84498 2.7065 -3.39634
1 -2.75501 2.8427 3.22926
1 -2.84109 -3.092 -2.91456
1 -2.78308 8.71447 2.85193
2 -5.80992 -0.106823 -5.71923
2 -5.84399 5.96011 -5.6295
2 -5.91892 0.22208 -0.0761236
2 -6.04405 5.89503 -0.00453255
3 -5.99419 3.04387 -5.64153
3 -2.96909 0.255034 -6.34929
3 0.165599 2.96077 5.74652
3 -3.01643 6.197 5.96018
3 -5.84443 3.07468 -0.854695
3 -3.04576 -0.715332 0.0544986
3 0.0363985 2.87505 -0.262044
3 -3.07266 6.23994 -0.333493
3 -6.38569 6.51856 -2.89915
3 0.0372771 6.13598 -2.95631
3 -0.141143 0.499242 2.78278
3 -5.58599 0.788152 2.74298
1 -2.31513 2.62196 8.33734
1 -3.07802 2.9942 14.4373
1 -3.35024 -3.08164 8.97348
1 -3.03975 8.51355 14.6667
2 -5.96981 0.238982 5.68995
2 -6.01764 5.92361 5.54007
2 -5.77899 0.00707206 11.6526
2 -5.73294 5.59233 11.3626
3 -5.66872 2.976 6.55271
3 -3.04207 -0.0917137 5.88889
3 -0.265502 3.1343 17.434
3 -2.92707 5.97141 17.2729
3 -4.84035 2.76694 11.0554
3 -3.00292 -0.978512 11.825
3 -0.62676 2.78288 11.5726
3 -2.99948 6.51316 11.529
3 -6.08668 6.73759 8.52194
3 -0.0464173 5.76474 8.70174
3 -0.104586 0.202137 14.5795
3 -5.90023 0.299232 14.7144
4 -2.85303 3.53696 20.4075
4 -3.21104 -2.82324 19.9802
2 -5.99479 0.230045 17.7465
2 -5.88911 5.91398 17.4835
3 -5.9336 3.12302 17.842
3 -3.07875 0.520556 17.747
3 -5.66574 5.93043 20.5624
3 -0.23778 6.15607 20.3428
4 2.47402 8.764 -20.2605
4 2.80778 14.8593 -19.6965
3 5.88164 8.7798 -18.1435
3 2.83305 11.6432 -17.5203
3 5.89976 5.4437 -20.839
3 -0.394157 6.28642 -20.4918
1 3.08732 8.89453 -14.8563
1 2.75409 8.80107 -8.92037
1 3.00323 3.29961 -14.7125
1 2.88535 14.4504 -8.47074
2 0.0735965 5.95526 -17.5961
2 -0.154725 11.7517 -17.3639
2 0.191424 5.92945 -11.7394
2 -0.0254883 11.7195 -11.6073
3 0.000276736 8.90613 -17.1856
3 2.87727 5.99152 -17.7996
3 6.29453 8.70681 -6.04225
3 2.82053 11.5783 -5.96607
3 0.178876 8.7681 -11.9406
3 3.02134 5.80513 -11.5522
3 5.49839 8.69492 -11.8093
3 2.98411 11.937 -11.2864
3 0.484905 11.8534 -14.5177
3 5.97585 11.2508 -14.714
3 6.25917 5.9301 -8.90082
3 0.00381771 5.48306 -8.77775
1 3.04408 8.59559 -2.59139
1 2.98594 8.67778 2.92911
1 3.27704 2.55348 -2.87908
1 2.56691 14.9286 2.78474
2 0.0972358 5.91338 -5.90383
2 -0.119115 11.536 -5.75365
2 -0.330046 5.97022 -0.0437027
2 -0.101118 11.452 0.118083
3 -0.355681 8.76603 -6.31626
3 3.12781 6.24775 -6.24408
3 5.59054 8.81962 6.35021
3 2.9173 12.1071 5.30894
3 0.0275634 8.70604 0.395023
3 2.70917 5.95556 0.428483
3 6.01141 8.77713 0.00135614
3 2.7851 11.8228 0.414663
3 0.506974 11.2691 -2.83364
3 5.40171 11.4505 -3.09108
3 5.63741 5.69201 2.91749
3 -0.397477 5.76748 3.00575
1 2.79121 8.24408 8.71519
1 3.016 8.70655 14.786
1 3.38423 2.72877 8.95515
1 3.17741 14.3381 14.9832
2 -0.101375 5.91186 5.85199
2 0.14245 11.7518 5.94839
2 -0.104574 5.82731 11.5297
2 -0.00627371 11.6379 11.8249
3 0.177075 8.8069 5.88203
3 3.10847 5.69999 5.84817
3 5.93569 8.76723 17.2424
3 2.91464 11.9234 17.7038
3 0.753978 8.47591 11.7977
3 2.74252 5.12501 11.6886
3 5.17119 8.72104 11.3714
3 2.87717 12.5018 11.7931
3 0.357195 11.5654 8.82444
3 5.81304 12.0782 8.65277
3 5.90929 5.85492 14.5248
3 -0.0452896 5.41048 14.4088
4 2.77534 8.98905 19.9922
4 2.52233 2.58308 20.0863
2 0.00562214 5.90168 17.4228
2 0.0303159 11.6611 17.5938
3 0.059368 8.80089 16.9874
3 3.0139 5.71512 17.288
3 -0.471071 11.3699 20.5517
3 5.62999 11.4966 20.603
4 8.44964 14.9429 -19.9889
4 8.69277 20.3244 -19.7128
3 11.6449 14.6572 -17.612
3 8.65497 17.6551 -17.2343
3 11.6216 11.8012 -20.7368
3 4.98914 11.8604 -20.7778
1 9.08408 14.495 -14.5543
1 8.81397 14.0359 -9.00448
1 8.74465 8.45461 -14.7905
4 8.48008 20.3388 -8.75215
2 5.71145 11.6981 -17.5199
2 5.77865 17.6206 -17.3607
2 6.03189 11.6939 -11.6886
2 5.8632 17.5469 -11.649
3 5.86052 14.6263 -17.1455
3 8.64977 11.6908 -17.7666
3 11.7157 14.7864 -5.75637
3 8.6945 17.6869 -5.86893
3 6.25339 14.5442 -11.7782
3 8.90582 11.3631 -11.7805
3 11.3768 14.6087 -11.5304
3 8.8489 17.7731 -11.7818
3 5.89006 17.3278 -14.4323
3 11.83 17.0637 -14.7623
3 11.5401 11.5688 -9.04557
3 6.11995 11.4643 -8.82536
1 8.65627 14.7669 -3.27345
1 8.56886 14.8883 2.61726
1 8.58698 8.91453 -2.97156
4 8.81562 19.97 2.52239
2 5.78109 11.5664 -5.99938
2 5.8059 17.6135 -5.93501
2 5.6774 11.6423 -0.0979923
2 5.60478 17.5368 0.0261626
3 5.77646 14.6273 -5.84717
3 8.63919 12.0063 -5.92071
3 11.2875 14.7862 5.95069
3 8.70572 17.8772 5.35857
3 5.85713 14.509 0.0357954
3 8.67695 12.208 -0.455718
3 11.9124 15.0227 -0.426266
3 8.66529 17.6952 -0.180695
3 5.66984 17.1969 -2.97883
3 11.6633 18.0303 -3.33864
3 11.2666 12.1935 2.84875
3 6.3401 11.5163 2.77428
1 8.83803 14.5868 8.5708
1 9.08223 14.6927 14.5194
1 8.482 8.66993 8.7145
4 8.75545 19.8066 14.4046
2 5.88404 11.6532 5.52499
2 5.75929 17.5779 5.90113
2 5.72247 11.5494 11.5291
2 5.79347 17.331 11.5628
3 6.52369 14.53 5.43001
3 8.76914 11.1602 6.15259
3 12.021 14.5234 16.923
3 8.84353 17.381 17.1657
3 6.2926 14.4609 11.8882
3 8.86279 10.9499 11.6275
3 11.4306 14.4391 11.6485
3 8.78683 17.5759 11.4847
3 5.70169 17.0378 8.702
3 11.5373 17.4586 8.65937
3 11.4689 11.1771 14.4143
3 5.806 11.4868 14.5141
4 9.19967 14.2394 20.2164
4 8.61277 8.35022 19.8771
2 5.97412 11.6277 17.6595
2 6.01491 17.4773 17.6059
3 6.05158 14.4369 17.5214
3 8.93672 11.4792 17.9562
3 6.03825 17.1362 20.4503
3 11.6604 17.2249 20.5296
4 14.3211 19.7686 -20.5958
3 16.8081 20.6285 -17.6822
3 17.0283 17.4279 -21.2798
3 11.1678 17.7497 -20.9998
4 14.823 19.7045 -14.7203
4 14.4258 20.0921 -9.48365
1 14.6332 14.406 -15.1677
2 11.6006 17.5079 -17.7219
2 11.7832 17.6557 -11.9164
3 11.7634 20.6651 -17.7221
3 14.4411 17.5464 -17.9609
3 17.4531 20.6176 -6.02126
3 12.044 20.6767 -12.1753
3 14.5904 17.3029 -11.9222
3 17.3268 20.5015 -12.0989
3 17.7907 17.0996 -9.38605
3 11.5088 17.4595 -9.09167
4 14.7664 20.3578 -3.52937
4 14.5516 20.3888 2.15038
1 14.738 14.3473 -3.27629
2 11.6519 17.8017 -6.13109
2 11.6871 17.8796 -0.529862
3 11.7411 20.91 -6.55759
3 14.9224 17.6751 -6.51781
3 17.113 20.753 5.30561
3 11.819 21.0606 -0.0579593
3 14.6435 18.0543 -0.656543
3 17.7151 20.8846 -1.126
3 17.2571 17.6596 2.32638
3 11.7992 17.6366 2.63296
4 14.3198 20.0384 8.5369
4 14.6078 20.1467 14.0521
1 14.2799 14.8135 8.61386
2 11.6568 17.8296 5.78547
2 11.6095 17.3736 11.563
3 11.4713 20.7675 5.9854
3 14.571 17.4038 5.6531
3 17.2599 20.8401 16.6989
3 11.5042 20.4345 11.5975
3 14.4752 17.4625 11.3249
3 17.4732 21.0326 10.9797
3 17.4543 17.6853 14.0882
3 11.5542 17.52 14.4421
4 14.6053 19.5256 19.9809
4 14.8863 14.6267 19.6085
2 11.9487 17.309 17.5307
3 11.6163 20.2941 17.3974
3 14.805 17.3124 16.8627
4 19.4793 20.0938 -15.0782
4 20.5852 19.8701 -3.65245
4 20.048 20.014 8.09914
4 -17.0334 -20.8166 -10.2266
4 -20.0417 -19.7412 2.87384
4 -20.0461 -20.2979 14.5004
4 -14.283 -19.969 -19.9891
4 -14.3443 -14.6877 -19.9049
3 -11.1483 -20.3636 -17.5242
3 -14.3917 -17.4507 -17.4201
4 -13.8882 -20.4598 -14.7702
4 -13.5043 -20.5902 -9.11879
1 -14.445 -15.236 -8.87916
2 -17.5932 -17.4973 -17.7269
2 -18.5388 -16.7558 -11.9666
3 -16.4366 -21.1439 -17.2365
3 -11.5117 -20.5816 -5.77221
3 -14.6858 -18.2034 -6.47897
3 -14.8502 -22.9264 -12.091
3 -11.171 -20.4916 -11.8388
3 -14.8115 -18.3477 -11.7629
3 -17.4036 -17.1645 -14.8678
3 -11.544 -17.4429 -14.5793
4 -14.3174 -19.8061 -3.03409
4 -14.9296 -19.8818 3.33832
1 -14.4993 -14.5766 2.96852
2 -17.6881 -17.8873 -6.02319
2 -17.6385 -17.4927 -0.235664
3 -17.8454 -20.8615 -5.7812
3 -12.4092 -20.6044 5.72835
3 -15.047 -17.2614 5.73177
3 -17.8146 -20.5518 -0.188709
3 -12.2393 -20.7134 0.114146
3 -14.699 -17.5016 -0.00437944
3 -17.1584 -17.3777 -3.08653
3 -11.9361 -17.1833 -3.00973
4 -14.6826 -20.089 8.80195
4 -14.076 -20.4101 14.3793
1 -14.5909 -14.5395 14.7222
2 -17.8385 -17.3272 5.78262
2 -17.5273 -17.741 11.6421
3 -17.5339 -20.3157 6.12188
3 -11.574 -20.6547 17.3321
3 -14.5748 -17.5688 17.1423
3 -17.5073 -20.6321 11.4742
3 -11.4492 -20.7717 11.4791
3 -14.5889 -17.5567 11.5924
3 -17.5445 -16.9807 8.75271
3 -12.0428 -17.3451 8.63832
4 -14.5035 -20.1211 19.5665
2 -17.7744 -17.8021 17.3955
3 -17.2292 -21.1713 16.8415
3 -17.4469 -17.6672 20.1775
3 -11.808 -17.6376 20.6589
4 -8.38612 -14.2923 -19.9734
4 -8.29546 -9.06998 -20.0111
3 -5.57121 -14.4858 -17.3205
3 -8.46909 -11.5767 -17.2545
3 -5.40954 -17.1152 -20.7629
3 -11.2203 -17.478 -20.6165
1 -8.71235 -14.5359 -14.6116
1 -8.84503 -14.7344 -8.695
4 -8.75969 -20.2747 -14.5953
1 -8.59562 -9.54088 -8.84643
2 -11.3856 -17.4532 -17.552
2 -11.47 -11.8208 -17.7431
2 -11.7209 -17.3475 -11.6937
2 -11.8975 -11.6393 -11.8391
3 -11.304 -14.6407 -17.6005
3 -8.43656 -17.3879 -17.4064
3 -5.51902 -14.7198 -5.80432
3 -8.64314 -12.2355 -6.12221
3 -12.4934 -14.4717 -12.0705
3 -8.90231 -16.682 -11.6981
3 -5.32238 -14.7957 -11.7541
3 -8.77825 -12.3792 -11.5333
3 -11.6765 -11.4847 -14.6946
3 -6.02854 -11.7521 -14.3118
3 -6.23444 -17.5902 -8.73873
3 -11.4126 -17.5195 -8.77348
1 -8.85072 -14.5308 -2.62154
1 -9.07949 -14.7247 2.92417
4 -8.52452 -19.8856 -3.04034
1 -9.09503 -8.59811 3.00354
2 -11.8755 -17.6136 -5.89181
2 -11.579 -11.8195 -5.97586
2 -11.8655 -17.7013 0.0429771
2 -11.6366 -11.5679 0.13034
3 -12.1533 -14.7066 -5.89066
3 -8.92135 -17.3449 -5.88908
3 -6.00322 -14.9161 5.77138
3 -8.96076 -11.5016 5.42636
3 -11.9942 -14.6025 0.181309
3 -9.01885 -17.7522 -0.200303
3 -6.47078 -14.7252 0.0963256
3 -8.78032 -11.4359 0.342932
3 -11.2729 -11.7517 -2.8946
3 -6.50304 -11.9215 -2.90832
3 -6.37059 -17.8793 2.75268
3 -12.1444 -17.4748 2.88426
1 -8.75774 -14.7703 8.3717
1 -9.00123 -14.4453 14.7277