2023
 Atoms. Timestep: 748
3 -16.9794 20.3886 -17.1894
3 -17.0316 17.0871 -20.5529
4 -19.6247 19.7698 -14.5754
4 -19.5332 19.8997 -8.83727
4 -19.6961 14.28 -14.6513
3 -20.3451 17.0758 -17.2042
3 -17.0764 20.3978 -6.02028
3 -20.313 17.5148 -11.639
3 -17.1268 20.3333 -11.7233
3 -17.1662 17.179 -8.837
4 -19.3257 20.0988 -3.08796
4 -19.2125 20.0755 2.83264
4 -19.9827 14.4224 -3.50878
3 -20.3248 17.632 -5.89636
3 -16.9601 20.2718 5.79711
3 -20.4517 18.2005 -0.141908
3 -16.9583 20.2661 -0.13032
3 -17.3464 16.9429 2.83009
4 -19.3641 20.0789 8.74314
4 -19.5592 19.7858 14.5509
4 -19.9671 14.4442 9.13984
3 -20.4502 18.1612 5.79422
3 -16.855 20.3304 17.1312
3 -20.31 17.5946 11.5434
3 -17.0976 20.3762 11.6596
3 -17.1165 17.1515 14.5012
4 -19.5643 14.3874 19.7582
3 -20.1915 17.0383 17.1533
4 -14.3742 19.6089 -14.4671
4 -14.4653 19.5709 -2.95493
4 -14.4352 19.5383 8.59467
4 -14.2137 19.6185 19.7742
4 -19.7507 8.73283 -19.8967
4 -19.729 14.4822 -19.8989
3 -17.1424 8.72841 -17.4111
3 -20.3106 11.5822 -17.4713
3 -17.3499 5.87762 -20.5494
4 -19.5075 8.77133 -14.4857
4 -19.5979 8.811 -9.01533
4 -19.7448 3.16067 -14.6675
4 -19.7203 14.3186 -8.9019
3 -20.3216 5.84338 -17.5074
3 -17.29 8.70617 -5.93274
3 -20.4402 11.7139 -6.26324
3 -20.2795 6.19886 -11.9341
3 -16.8077 8.68447 -11.7024
3 -20.1955 11.4453 -11.7963
3 -17.093 11.5719 -14.6538
3 -17.457 5.76106 -8.76396
4 -19.6766 8.52465 -2.82182
4 -19.5977 8.59937 2.83729
4 -19.7579 3.10283 -2.85118
4 -20.1987 13.6153 2.84766
3 -20.4119 5.81912 -5.50133
3 -16.9793 8.73018 5.72196
3 -20.4585 10.9935 5.60369
3 -20.2845 5.91832 -0.102166
3 -16.9569 8.74295 -0.0572836
3 -20.4607 10.9773 0.0851312
3 -17.5262 11.5783 -3.03773
3 -17.3212 5.75005 2.85202
4 -19.6358 8.55032 8.4836
4 -19.7097 8.8612 14.3239
4 -19.7813 3.16421 8.53937
4 -19.5824 14.2793 14.609
3 -20.2798 5.91284 5.82434
3 -17.1899 8.58149 17.1452
3 -20.2429 11.5094 17.3004
3 -20.3984 6.0184 11.205
3 -17.1541 8.69852 11.5712
3 -20.3865 11.7214 11.8973
3 -17.5251 11.5987 8.70381
3 -17.6973 5.73837 14.4263
4 -19.7394 8.53654 19.7019
4 -19.6017 2.72378 19.8079
3 -20.421 5.57056 17.5518
3 -17.438 11.3503 20.4455
4 -14.3383 14.4101 -19.9401
4 -14.4116 19.7569 -19.902
3 -11.5197 14.4651 -17.5029
3 -14.4285 17.2051 -17.3702
3 -11.5524 11.5477 -20.5782
3 -17.3426 11.5811 -20.5657
1 -14.3519 14.4552 -14.6903
1 -14.343 14.4214 -8.72719
1 -14.3929 8.73376 -14.7656
4 -14.332 19.6574 -8.86353
2 -17.3351 11.6098 -17.5817
2 -17.3958 17.4453 -17.589
2 -17.2032 11.5763 -11.7399
2 -17.3121 17.3586 -11.731
3 -17.1414 14.4795 -17.4113
3 -14.4165 11.5754 -17.5077
3 -11.4425 14.5265 -6.0179
3 -14.4593 17.1996 -5.94722
3 -17.4635 14.4661 -11.7545
3 -14.3381 12.1659 -11.7811
3 -10.9883 14.4312 -11.6355
3 -14.3795 17.0002 -11.6731
3 -17.1648 17.146 -14.6229
3 -11.5226 17.1742 -14.6216
3 -11.7146 11.4923 -8.77681
3 -17.0526 11.5641 -8.83833
1 -14.4611 14.5075 -3.23764
1 -14.305 14.3778 2.85378
1 -14.7322 8.86317 -3.12938
4 -14.6062 19.525 2.82293
2 -17.4947 11.5964 -5.95568
2 -17.369 17.4204 -5.94125
2 -17.5332 11.6335 -0.0904652
2 -17.5984 17.2653 -0.0929014
3 -17.3188 14.4962 -6.03052
3 -14.5449 11.7328 -5.76226
3 -11.3565 14.4241 5.47903
3 -14.6357 16.8746 5.7583
3 -18.3419 14.4478 -0.204706
3 -14.6558 12.2561 -0.318255
3 -11.3059 14.4386 0.217367
3 -14.6481 16.8515 -0.0936684
3 -17.2845 17.1081 -3.03195
3 -11.695 17.0903 -2.96381
3 -12.1121 11.2674 2.86559
3 -17.0923 11.5718 2.83591
1 -14.4751 14.5041 8.82797
1 -14.3349 14.3807 14.3826
1 -14.7253 8.97126 8.72652
4 -14.3457 19.7175 14.2877
2 -17.5293 11.6189 5.75273
2 -17.5879 17.2804 5.74906
2 -17.4267 11.5897 11.6199
2 -17.3474 17.4045 11.6059
3 -18.2541 14.445 5.86316
3 -14.6318 12.1255 6.02995
3 -11.4015 14.4275 17.0136
3 -14.2688 17.1788 17.122
3 -17.3136 14.4849 11.68
3 -14.4949 11.8084 11.3861
3 -11.3102 14.4902 11.8466
3 -14.4272 17.1278 11.562
3 -17.2776 17.1184 8.68884
3 -11.6564 17.0302 8.63965
3 -11.8982 11.3097 14.4925
3 -17.0083 11.5151 14.5161
4 -14.0256 14.4368 19.7029
4 -14.4417 8.31067 19.7315
2 -17.2595 11.4861 17.4612
2 -17.2261 17.3671 17.472
3 -16.9581 14.384 17.2712
3 -14.3668 11.3934 17.6179
3 -16.8122 16.9629 20.4145
3 -11.3185 17.1809 20.3083
4 -8.67723 19.6818 -20
3 -5.90702 20.3827 -17.5551
3 -5.73728 17.3314 -20.5034
3 -11.5569 17.318 -20.5566
4 -8.7452 19.7702 -14.7345
4 -8.28767 19.7747 -8.71368
1 -8.74102 14.3743 -14.7462
2 -11.5578 17.3866 -17.5574
2 -11.4861 17.3607 -11.6945
3 -11.4744 20.3568 -17.5429
3 -8.67794 17.1605 -17.4243
3 -5.45166 20.3216 -6.15997
3 -11.8466 20.3518 -11.8072
3 -8.63225 17.7258 -11.716
3 -5.40226 20.2031 -11.5058
3 -5.76814 16.9172 -8.74561
3 -11.4082 17.3513 -8.78271
4 -9.03203 19.8331 -2.81847
4 -8.7481 19.7263 2.87533
1 -8.86547 14.6106 -2.89901
2 -11.58 17.4884 -5.87639
2 -11.7533 17.3336 -0.0549761
3 -11.8303 20.427 -5.62725
3 -8.71139 17.5561 -5.76641
3 -6.03161 20.4062 5.53941
3 -11.9835 20.2869 -0.143987
3 -8.84352 17.4285 -0.0446026
3 -6.03837 20.4277 0.239027
3 -5.90523 17.0423 2.8475
3 -11.6945 17.3325 2.84335
4 -8.9886 19.802 8.47663
4 -8.31259 19.7548 14.4794
1 -8.79358 14.6012 8.57729
2 -11.7337 17.3253 5.73595
2 -11.5419 17.4394 11.5341
3 -11.9006 20.2761 5.83297
3 -8.82022 17.3514 5.73352
3 -5.60668 20.3024 17.3079
3 -11.8417 20.3906 11.2476
3 -8.66843 17.5801 11.4656
3 -5.5062 20.3583 11.8063
3 -5.66516 17.0735 14.4341
3 -11.3507 17.548 14.4258
4 -8.44113 19.622 19.7933
4 -8.57394 14.2827 19.6207
2 -11.3856 17.3675 17.326
3 -11.2883 20.3583 17.5011
3 -8.49808 17.1327 17.1794
4 -2.86708 19.5205 -14.2754
4 -2.83838 19.6351 -3.19061
4 -2.85566 19.6326 8.80126
4 -2.68853 19.7074 19.6881
4 -19.8261 -2.76168 -19.6945
4 -19.6774 2.99591 -19.9471
3 -17.209 -2.77408 -17.211
3 -20.3994 0.247563 -17.5132
3 -17.4739 -5.59798 -20.4088
4 -19.5207 -2.87857 -14.2044
4 -19.4542 -2.87046 -8.71053
4 -19.6875 -8.3443 -14.4131
4 -19.7479 2.57513 -8.59015
3 -20.3238 -5.66371 -17.2544
3 -16.9224 -2.83353 -5.83474
3 -20.2644 -0.263343 -6.03001
3 -20.1592 -5.54921 -11.657
3 -16.7318 -2.81266 -11.6052
3 -20.2176 -0.353703 -11.4039
3 -17.3671 0.143499 -14.5267
3 -17.1641 -5.75903 -8.68489
4 -19.5686 -2.9369 -3.05125
4 -19.656 -2.63955 2.81268
4 -19.6231 -8.36786 -2.98442
4 -19.7117 2.81039 2.84907
3 -20.1673 -5.68521 -5.76299
3 -17.1069 -2.84294 5.73114
3 -20.349 0.0062859 5.52573
3 -20.2906 -5.58234 -0.440382
3 -17.0358 -2.82189 -0.00885399
3 -20.3263 0.026718 0.154665
3 -17.4225 0.0747219 -2.92522
3 -17.6581 -5.75441 2.86914
4 -19.5939 -2.97701 8.70266
4 -19.6435 -2.91761 14.2669
4 -19.6419 -8.47694 8.67942
4 -19.7872 2.60584 14.4226
3 -20.307 -5.71208 6.16681
3 -17.1626 -2.96633 17.1254
3 -20.3108 -0.0941627 17.3332
3 -20.2514 -5.67053 11.4431
3 -17.0028 -2.86433 11.5394
3 -20.3642 -0.212027 11.7574
3 -17.4618 0.0652198 8.63662
3 -17.3613 -5.83415 14.4301
4 -19.6724 -2.99285 19.714
4 -19.6 -8.74025 19.7572
3 -20.3213 -5.8976 17.4096
3 -17.2797 -0.15827 20.3372
4 -14.3401 2.8877 -19.8845
4 -14.2891 8.71562 -19.9458
3 -11.5496 2.9462 -17.4085
3 -14.4411 5.83908 -17.558
3 -11.7759 0.0439391 -20.4984
3 -17.3312 0.0349846 -20.4333
1 -14.3741 3.03601 -14.676
1 -14.3861 2.83989 -8.58481
1 -14.3883 -2.72519 -14.6461
1 -14.42 8.62751 -8.62154
2 -17.4198 0.106419 -17.4428
2 -17.3519 5.85616 -17.5447
2 -17.2554 0.0722774 -11.6037
2 -17.3035 5.79354 -11.6718
3 -17.1504 2.98296 -17.3734
3 -14.4842 0.0982815 -17.2923
3 -11.1417 3.01018 -6.09787
3 -14.5001 5.65994 -6.07217
3 -17.7266 2.92976 -11.6318
3 -14.3794 0.687615 -11.8299
3 -10.863 2.96871 -11.5978
3 -14.4034 5.19399 -11.4901
3 -17.0762 5.86464 -14.6067
3 -11.713 5.77738 -14.5939
3 -11.8279 -0.0206325 -8.70626
3 -16.9111 -0.00379911 -8.7065
1 -14.611 3.03143 -2.89874
1 -14.4194 2.76772 2.86385
1 -14.608 -2.55562 -2.8997
1 -14.5001 8.40255 2.84433
2 -17.3257 0.0394052 -5.82588
2 -17.4705 5.80986 -5.8558
2 -17.3702 0.062526 -0.0245464
2 -17.3238 5.84219 -0.0429297
3 -17.3877 2.92666 -5.76361
3 -14.3971 0.393044 -5.52506
3 -11.1067 3.00544 5.41943
3 -14.411 5.45907 5.46617
3 -17.3794 2.94747 -0.0499567
3 -14.4231 0.381416 -0.286551
3 -11.0808 3.03796 0.335406
3 -14.4132 5.44087 0.248551
3 -17.0549 5.87965 -2.94848
3 -11.8895 5.61838 -2.9266
3 -11.9184 -0.150773 2.88691
3 -16.9826 0.020964 2.85661
1 -14.6383 2.96268 8.63205
1 -14.3614 2.68348 14.4174
1 -14.6707 -2.60535 8.61237
1 -14.4393 8.53709 14.3851
2 -17.3979 0.0469896 5.72977
2 -17.3197 5.82866 5.74299
2 -17.4048 0.0211769 11.5283
2 -17.445 5.79868 11.537
3 -17.3731 2.934 5.76621
3 -14.4479 0.313161 6.02438
3 -11.5457 2.84666 16.9884
3 -14.4843 5.67039 17.0137
3 -17.5162 2.9082 11.486
3 -14.4528 0.371942 11.3542
3 -11.1411 2.95255 11.9693
3 -14.5164 5.49143 11.9277
3 -17.0048 5.88426 8.64751
3 -11.903 5.51513 8.68086
3 -11.7276 -0.307041 14.4493
3 -17.1251 -0.0736773 14.417
4 -14.3537 2.83021 19.5926
4 -14.385 -3.00786 19.7122
2 -17.337 -0.0901554 17.3433
2 -17.4274 5.68412 17.3142
3 -17.1738 2.79564 17.1289
3 -14.4305 -0.101102 17.2995
3 -17.2416 5.65733 20.2965
3 -11.8287 5.47538 20.3416
4 -8.72181 8.58928 -19.9049
4 -8.62265 14.3518 -19.9322
3 -5.76153 8.69822 -17.5807
3 -8.65962 11.5332 -17.4894
3 -6.0102 5.68999 -20.5435
3 -11.507 5.83833 -20.5165
1 -8.6262 8.76619 -14.8135
1 -8.46076 8.61234 -8.68647
1 -8.76382 2.95143 -14.7491
1 -8.65914 14.384 -8.64574
2 -11.5569 5.82472 -17.545
2 -11.538 11.5814 -17.6037
2 -11.5194 5.8472 -11.65
2 -11.4915 11.5148 -11.6971
3 -11.5399 8.70356 -17.383
3 -8.68292 5.83718 -17.2905
3 -5.34225 8.71854 -6.133
3 -8.75737 11.2507 -6.05544
3 -12.2967 8.68937 -11.7556
3 -8.661 6.52083 -11.8944
3 -5.11994 8.65716 -11.5519
3 -8.64934 10.8499 -11.6603
3 -11.4861 11.6261 -14.645
3 -5.8389 11.4466 -14.6345
3 -6.12563 5.63226 -8.75267
3 -11.3485 6.129 -8.73747
1 -9.1963 8.98823 -2.9423
1 -8.30347 8.64967 2.89112
1 -8.89246 3.43432 -2.90693
1 -8.65495 14.4763 2.86174
2 -11.5772 5.87434 -5.83933
2 -11.6303 11.6239 -5.87025
2 -11.5535 5.9247 0.00185363
2 -11.7834 11.5864 -0.0239291
3 -11.9689 8.75139 -5.5831
3 -8.69303 6.35935 -5.49409
3 -5.37962 8.71885 5.45376
3 -8.81986 11.222 5.52743
3 -12.2325 8.75289 -0.454011
3 -8.69043 6.42309 -0.369208
3 -5.371 8.74161 0.33305
3 -8.85837 11.1809 0.226429
3 -11.5305 11.9391 -2.95221
3 -6.28616 11.3383 -2.91686
3 -6.16638 5.56356 2.88973
3 -11.2719 6.41746 2.8787
1 -9.1583 8.9505 8.71196
1 -8.51523 8.53115 14.5697
1 -8.87219 3.38745 8.69961
1 -8.49024 14.3959 14.4013
2 -11.5491 5.88572 5.75386
2 -11.7399 11.5647 5.75234
2 -11.609 5.82099 11.5822
2 -11.5821 11.5785 11.6046
3 -12.1212 8.72839 6.2051
3 -8.69072 6.37363 6.14362
3 -5.66612 8.64432 17.0681
3 -8.58682 11.5194 16.9865
3 -12.0392 8.7038 11.2485
3 -8.71025 6.35298 11.3295
3 -5.28801 8.70647 11.9196
3 -8.70985 11.1644 11.9239
3 -11.4538 11.9508 8.68593
3 -6.28322 11.3174 8.66724
3 -5.99989 5.53855 14.5518
3 -11.3726 6.13108 14.4751
4 -8.40379 8.81989 19.6872
4 -8.93223 2.7822 19.7468
2 -11.5738 5.73848 17.387
2 -11.4765 11.5237 17.403
3 -11.4471 8.62955 17.5376
3 -8.66544 5.74817 17.4649
3 -11.2237 11.7711 20.3677
3 -5.79482 11.5336 20.3195
4 -2.94564 14.3949 -19.8691
4 -2.92431 19.7969 -19.8013
3 -0.0491536 14.4488 -17.5088
3 -2.92686 17.214 -17.2881
3 0.00967325 11.5121 -20.4729
3 -5.72362 11.7615 -20.5668
1 -2.96107 14.4014 -14.7308
1 -2.76502 14.3088 -8.63388
1 -3.02603 8.71298 -14.7767
4 -2.86999 19.4475 -8.80217
2 -5.78167 11.5853 -17.6021
2 -5.80342 17.4037 -17.5104
2 -5.78151 11.5208 -11.6673
2 -5.78683 17.2256 -11.6548
3 -5.80091 14.4738 -17.3894
3 -2.90916 11.5801 -17.3691
3 0.265053 14.3145 -6.05802
3 -2.95859 16.936 -5.88172
3 -6.47721 14.3707 -11.8436
3 -2.94253 12.2329 -11.7881
3 0.547145 14.2839 -11.4834
3 -2.90807 16.7261 -11.66
3 -5.82694 17.2939 -14.5875
3 -0.0481962 17.0527 -14.5461
3 -0.487121 11.179 -8.69824
3 -5.75189 11.8502 -8.74271
1 -3.29651 14.7071 -2.89001
1 -2.92064 14.4786 2.85059
1 -3.23599 9.12848 -2.87755
4 -3.30113 19.7524 2.85014
2 -5.8638 11.5862 -5.82677
2 -5.82809 17.3965 -5.85958
2 -5.94416 11.6069 -0.0151765
2 -5.93951 17.4771 -0.0369171
3 -6.23866 14.4816 -5.53138
3 -3.01136 12.0501 -5.43408
3 0.10912 14.5158 5.29413
3 -3.01492 17.1998 5.72254
3 -6.20871 14.5206 -0.299923
3 -3.06187 12.0514 -0.387787
3 0.143245 14.5093 0.428932
3 -3.03704 17.1753 -0.0165019
3 -5.9015 17.5623 -2.94414
3 -0.190853 16.9584 -2.9251
3 -0.731665 11.278 2.88089
3 -5.7704 11.9724 2.87459
1 -3.21868 14.7214 8.59234
1 -2.68406 14.3716 14.4171
1 -3.21514 9.04693 8.66609
4 -2.82025 19.6138 14.3014
2 -5.90166 11.5897 5.76479
2 -5.91778 17.4558 5.72616
2 -5.81741 11.5713 11.547
2 -5.78585 17.4058 11.5375
3 -6.11643 14.5057 6.00846
3 -3.02659 11.9797 6.19591
3 0.113604 14.3965 17.1321
3 -2.73543 17.1457 17.1488
3 -6.2106 14.4794 11.2798
3 -2.94521 12.0738 11.1587
3 0.353978 14.4085 11.8208
3 -2.90366 16.9654 11.572
3 -5.88234 17.5116 8.63366
3 -0.140363 16.9961 8.63178
3 -0.25789 11.3532 14.4168
3 -5.49973 11.8705 14.4257
4 -2.67566 14.3421 19.726
4 -2.85478 8.57487 19.7103
2 -5.69659 11.5373 17.3476
2 -5.61283 17.3281 17.369
3 -5.6168 14.4306 17.4011
3 -2.81172 11.4789 17.3701
3 -5.52479 17.3515 20.3666
3 0.138766 17.2371 20.3354
4 2.81881 19.6704 -19.8707
3 5.60206 20.3845 -17.4787
3 5.75949 17.2868 -20.3763
3 -0.099621 17.3873 -20.4739
4 2.66986 19.704 -14.5112
4 2.9056 19.6558 -8.5988
1 2.77028 14.3508 -14.5933
2 -0.048511 17.361 -17.4758
2 -0.0242949 17.1798 -11.6286
3 -0.0098901 20.3307 -17.3988
3 2.82529 17.1468 -17.2933
3 5.78453 20.2378 -6.01078
3 -0.229797 20.1732 -11.7046
3 2.84705 17.499 -11.5842
3 6.03087 20.2336 -11.4288
3 5.75354 16.9088 -8.68379
3 0.000603427 17.139 -8.73702
4 2.58753 19.6861 -3.0419
4 3.22647 19.7154 2.86126
1 2.69602 14.5864 -2.92061
2 -0.0770107 17.2311 -5.83488
2 -0.127186 17.46 -0.0235272
3 -0.112983 20.1918 -5.87375
3 2.80776 17.2543 -5.79349
3 5.97903 20.2488 5.56773
3 -0.231638 20.3921 -0.588897
3 2.78247 17.4341 -0.0619315
3 6.00048 20.231 0.184888
3 5.76625 16.8721 2.8709
3 -0.0952136 17.8811 2.84926
4 2.62129 19.7225 8.67359
4 3.10416 19.6539 14.4574
1 2.77774 14.6587 8.67624
2 -0.106103 17.4658 5.71904
2 -0.0160879 17.3157 11.5384
3 -0.199671 20.4043 6.24893
3 2.80264 17.3969 5.76955
3 5.88982 20.2565 17.2465
3 -0.17616 20.2781 11.4757
3 2.87384 17.4025 11.5221
3 5.92437 20.2835 11.793
3 5.85519 16.9994 14.4515
3 0.124268 17.3551 14.4468
4 3.06319 19.6294 19.7409
4 2.90871 14.1653 19.6687
2 0.14617 17.3229 17.3567
3 0.228404 20.3148 17.3945
3 3.02241 17.0577 17.2094
4 8.69121 19.5741 -14.1813
4 8.65268 19.5297 -2.84727
4 8.70327 19.5532 8.59778
4 8.83232 19.7333 19.6167
4 -19.7901 -14.2548 -19.6276
4 -19.7295 -8.51143 -19.7378
3 -17.2642 -14.2997 -17.062
3 -20.4145 -11.2955 -17.3523
3 -17.1522 -16.8763 -20.2831
4 -19.6935 -14.29 -14.1174
4 -19.5068 -14.2656 -8.59064
4 -19.8312 -19.5153 -14.3336
4 -19.6244 -8.68259 -8.55878
3 -20.4521 -16.8332 -16.9072
3 -17.0488 -14.3749 -5.71314
3 -20.2276 -11.5818 -5.91054
3 -20.2934 -17.0812 -11.407
3 -16.9969 -14.3518 -11.4706
3 -20.2727 -11.6789 -11.2768
3 -17.4254 -11.3704 -14.3969
3 -17.0576 -17.1286 -8.60908
4 -19.5822 -14.3326 -2.81899
4 -19.4521 -14.352 2.89486
4 -19.7865 -19.484 -2.86619
4 -19.6586 -8.95959 2.90691
3 -20.26 -17.0934 -5.73368
3 -16.989 -14.4248 5.77356
3 -20.2154 -11.7617 5.62154
3 -20.222 -17.0942 0.0327739
3 -16.9571 -14.3988 0.00226003
3 -20.2132 -11.7879 0.217847
3 -17.3217 -11.4256 -2.8686
3 -16.9901 -17.1915 2.88922
4 -19.5912 -14.3556 8.59413
4 -19.5867 -14.3746 14.2864
4 -19.7508 -19.569 8.62871
4 -19.6821 -8.78142 14.3683
3 -20.2268 -17.1355 5.7554
3 -17.1075 -14.465 17.1305
3 -20.2704 -11.5479 17.2882
3 -20.2563 -17.2001 11.5072
3 -17.0751 -14.4142 11.4783
3 -20.2895 -11.6497 11.6345
3 -17.2586 -11.4804 8.65105
3 -17.0612 -17.1776 14.3944
4 -19.6481 -14.472 19.6715
3 -20.2735 -17.0492 16.9669
3 -17.2301 -11.606 20.3267
4 -14.3597 -8.72487 -19.7427
4 -14.4127 -2.71115 -19.8097
3 -11.5595 -8.58386 -17.3013
3 -14.4484 -5.66986 -17.5412
3 -11.7887 -11.6121 -20.3515
3 -17.3037 -11.4168 -20.2869
1 -14.3733 -8.52997 -14.4728
1 -14.3793 -8.70431 -8.60085
1 -14.4468 -14.2552 -14.3845
1 -14.2706 -2.98975 -8.60245
2 -17.4313 -11.4212 -17.3051
2 -17.3527 -5.65695 -17.4142
2 -17.3044 -11.4597 -11.5016
2 -17.1685 -5.69635 -11.572
3 -17.1553 -8.53624 -17.2081
3 -14.4919 -11.4355 -17.0784
3 -11.0103 -8.50767 -6.03506
3 -14.2829 -5.98792 -6.03819
3 -17.4055 -8.58253 -11.5255
3 -14.3754 -11.1541 -11.7929
3 -10.9072 -8.5291 -11.4546
3 -14.2695 -6.22011 -11.3774
3 -16.9953 -5.66281 -14.4856
3 -11.7337 -5.7548 -14.5035
3 -11.8467 -11.5254 -8.64549
3 -16.9083 -11.5114 -8.6244
1 -14.5224 -8.53974 -2.88328
1 -14.2548 -8.79253 2.89578
1 -14.3972 -14.258 -2.8967
1 -14.4212 -2.95446 2.86313
2 -17.2641 -11.4852 -5.75084
2 -17.2069 -5.71259 -5.7917
2 -17.2526 -11.5023 0.0133958
2 -17.342 -5.7143 -0.00460634
3 -17.1894 -8.60289 -5.76195
3 -14.316 -11.2838 -5.46043
3 -11.0976 -8.51398 5.36799
3 -14.4082 -5.93458 5.33555
3 -17.3571 -8.61521 -0.020548
3 -14.3105 -11.1939 -0.255837
3 -11.0605 -8.49996 0.384396
3 -14.3982 -5.99101 0.407406
3 -16.9036 -5.64105 -2.89671
3 -11.8067 -5.99102 -2.85434
3 -11.7485 -11.7044 2.88825
3 -16.869 -11.5715 2.88623
1 -14.5513 -8.65274 8.69341
1 -14.328 -8.76981 14.393
1 -14.4205 -14.2971 8.64623
1 -14.377 -3.00331 14.3715
2 -17.2583 -11.5307 5.75883
2 -17.3525 -5.74264 5.74156
2 -17.3178 -11.5312 11.5338
2 -17.2851 -5.75598 11.5299
3 -17.2895 -8.64335 5.78277
3 -14.3233 -11.274 5.99513
3 -11.4808 -8.67775 16.9785
3 -14.4034 -5.81619 17.1204
3 -17.2907 -8.64909 11.5243
3 -14.3575 -11.3 11.4471
3 -11.084 -8.5512 11.8911
3 -14.3736 -6.0387 11.8324
3 -16.9318 -5.70367 8.63925
3 -11.8714 -6.09227 8.62896
3 -11.5619 -11.7771 14.4355
3 -17.1111 -11.5633 14.4158
4 -14.239 -8.67655 19.6086
4 -14.3388 -14.3427 19.713
2 -17.2956 -11.5961 17.3407
2 -17.3306 -5.84319 17.3396
3 -17.1015 -8.71606 17.1536
3 -14.3772 -11.5597 17.2315
3 -17.2167 -5.83008 20.3211
3 -11.6299 -6.01483 20.3168
4 -8.68407 -2.9681 -19.8034
4 -8.67118 2.9911 -19.8562
3 -5.81289 -2.83142 -17.3984
3 -8.71215 0.041907 -17.5173
3 -5.94432 -5.81251 -20.3758
3 -11.3913 -5.75049 -20.4199
1 -8.7457 -2.67424 -14.6838
1 -8.16922 -2.99147 -8.70333
1 -8.77338 -8.52245 -14.608
1 -8.52327 2.64628 -8.72336
2 -11.5592 -5.69872 -17.4568
2 -11.5957 0.0654521 -17.5345
2 -11.4043 -5.62064 -11.5651
2 -11.5058 0.0888592 -11.6176
3 -11.5839 -2.81303 -17.315
3 -8.67968 -5.66804 -17.1164
3 -5.19507 -2.7981 -6.14115
3 -8.63302 -0.405856 -6.13439
3 -12.1326 -2.7776 -11.7577
3 -8.54758 -5.07309 -11.8917
3 -5.13669 -2.83408 -11.352
3 -8.63019 -0.54723 -11.4308
3 -11.4199 0.130715 -14.5721
3 -5.97203 -0.0852357 -14.5634
3 -6.00054 -6.02196 -8.67178
3 -11.1344 -5.29754 -8.65993
1 -8.99516 -2.50641 -2.86844
1 -8.16118 -2.97346 2.91073
1 -8.79364 -8.16957 -2.8593
1 -8.45333 2.58652 2.89258
2 -11.4049 -5.61469 -5.75664
2 -11.4943 0.117804 -5.79786
2 -11.4913 -5.60329 0.0452062
2 -11.513 0.138777 0.00793298
3 -11.9163 -2.7519 -5.41057
3 -8.53298 -5.1616 -5.39155
3 -5.23021 -2.79697 5.48496
3 -8.63575 -0.371543 5.46734
3 -11.9309 -2.74019 -0.417775
3 -8.57613 -5.1972 -0.346076
3 -5.22321 -2.79155 0.340974
3 -8.63644 -0.377207 0.353243
3 -11.2324 0.541118 -2.8939
3 -6.05151 -0.191574 -2.90882
3 -6.02906 -6.00953 2.90879
3 -11.1918 -5.06718 2.89724
1 -8.9559 -2.513 8.67098
1 -8.5079 -2.97278 14.594
1 -8.83552 -8.21751 8.68308
1 -8.53811 2.78483 14.6294
2 -11.4994 -5.62091 5.74632
2 -11.5248 0.112436 5.76839
2 -11.487 -5.65924 11.5083
2 -11.5224 0.0712934 11.5539
3 -11.8932 -2.75948 6.24811
3 -8.58685 -5.2239 6.16601
3 -5.67412 -2.90884 17.0925
3 -8.63065 -0.0550241 17.216
3 -11.9893 -2.79606 11.1278
3 -8.59752 -5.16676 11.258
3 -5.17611 -2.78328 11.9642
3 -8.65527 -0.473007 11.8724
3 -11.2855 0.555317 8.67093
3 -6.02218 -0.152783 8.72814
3 -5.93628 -5.98076 14.4794
3 -11.3548 -5.40335 14.4211
4 -8.45202 -2.96619 19.7236
4 -8.76452 -8.7105 19.702
2 -11.5098 -5.79891 17.3434
2 -11.5312 -0.0416846 17.3865
3 -11.4345 -2.92102 17.4907
3 -8.62008 -5.82913 17.3289
3 -11.6549 0.157555 20.3524
3 -5.81278 -0.380716 20.4677
4 -3.03355 2.78088 -19.8732
4 -2.75161 8.74892 -19.892
3 -0.0260793 2.91406 -17.5802
3 -2.92563 5.77834 -17.5825
3 -0.229396 -0.182078 -20.4845
3 -5.73123 0.0594436 -20.479
1 -3.04886 3.02187 -14.7107
1 -2.46881 2.65579 -8.75796
1 -3.02602 -2.68928 -14.6465
1 -2.78677 8.17818 -8.73907
2 -5.82335 0.0492629 -17.523
2 -5.80672 5.80853 -17.5887
2 -5.74195 0.0543702 -11.6378
2 -5.81149 5.78433 -11.6793
3 -5.86379 2.93035 -17.3016
3 -2.9433 0.0927952 -17.2262
3 0.515643 2.8596 -6.14625
3 -2.95459 5.2157 -6.17579
3 -6.41991 2.9169 -11.9034
3 -2.86529 0.59418 -11.931
3 0.554612 2.83545 -11.4281
3 -2.92902 5.13372 -11.436
3 -5.62666 5.94875 -14.6235
3 -0.244462 5.54143 -14.5938
3 -0.221219 -0.317761 -8.73738
3 -5.50073 0.380908 -8.73145
1 -3.35264 3.12246 -2.92091
1 -2.47894 2.6991 2.90227
1 -3.05477 -2.38246 -2.90324
1 -2.78666 8.2167 2.8937
2 -5.75635 0.0840084 -5.82485
2 -5.81517 5.83334 -5.83587
2 -5.75492 0.0901408 0.00175147
2 -5.82816 5.85213 -0.0149867
3 -6.33797 2.95569 -5.50495
3 -2.86889 0.557236 -5.51858
3 0.486962 2.89862 5.47968
3 -2.95514 5.2991 5.46637
3 -6.31498 2.9647 -0.333498
3 -2.87042 0.564667 -0.324176
3 0.487699 2.88686 0.328231
3 -2.95875 5.28721 0.335117
3 -5.5023 6.14753 -2.92229
3 -0.401257 5.41043 -2.91163
3 -0.278169 -0.300399 2.90931
3 -5.43162 0.392144 2.9033
1 -3.33795 3.11136 8.73376
1 -2.71411 2.76839 14.671
1 -3.04333 -2.37351 8.75939
1 -2.73692 8.50985 14.6026
2 -5.75015 0.0824357 5.806
2 -5.82744 5.83298 5.79538
2 -5.78225 0.0830681 11.661
2 -5.81701 5.83345 11.6344
3 -6.30526 2.95421 6.11456
3 -2.87206 0.57368 6.12124
3 0.122304 2.85001 17.201
3 -2.86275 5.67775 17.1876
3 -6.38125 2.95392 11.3638
3 -2.8898 0.622394 11.4318
3 0.57534 2.91762 11.9027
3 -2.9544 5.21651 11.9103
3 -5.55042 6.11468 8.7135
3 -0.408397 5.47677 8.68954
3 -0.154676 -0.175897 14.5807
3 -5.60349 0.352874 14.5785
4 -2.64735 2.93481 19.814
4 -3.00309 -3.03593 19.7912
2 -5.73244 -0.0236772 17.5239
2 -5.75762 5.75692 17.5083
3 -5.78364 2.86829 17.7027
3 -2.83637 -0.0127186 17.4916
3 -5.65684 6.14995 20.4449
3 -0.0771555 5.73159 20.4136
4 2.80797 8.65252 -19.7782
4 2.93178 14.3311 -19.811
3 5.74262 8.6902 -17.4459
3 2.84492 11.5423 -17.3482
3 5.71038 5.71639 -20.3795
3 0.139436 6.02503 -20.496
1 2.77909 8.75544 -14.6794
1 3.13959 8.40389 -8.72065
1 2.67338 2.9806 -14.6823
1 2.95763 14.3921 -8.64027
2 -0.037239 5.79809 -17.5451
2 -0.0309518 11.5583 -17.5064
2 -0.0322549 5.71943 -11.6643
2 -0.115547 11.4231 -11.6038
3 -0.0622019 8.67841 -17.2318
3 2.84317 5.84635 -17.1965
3 6.16999 8.57101 -6.18311
3 2.72661 10.9838 -6.08379
3 -0.710221 8.57017 -11.9135
3 2.83636 6.30598 -11.9281
3 6.24952 8.55957 -11.2871
3 2.78125 10.8458 -11.5038
3 0.00792978 11.6757 -14.5524
3 5.6072 11.3495 -14.5006
3 5.31788 5.33903 -8.6993
3 0.228224 5.97864 -8.73767
1 2.32056 8.84813 -2.88691
1 3.1488 8.41384 2.87932
1 2.62065 3.23463 -2.91244
1 2.99073 14.289 2.87564
2 -0.070047 5.72458 -5.8187
2 -0.159778 11.4492 -5.79407
2 -0.0728646 5.7665 -0.0183
2 -0.188096 11.5936 0.0360935
3 -0.658883 8.58312 -5.45653
3 2.80811 6.25659 -5.44819
3 6.14416 8.58022 5.39697
3 2.73905 11.1565 5.34968
3 -0.588362 8.66293 -0.3281
3 2.81212 6.23896 -0.370305
3 6.12569 8.58058 0.358978
3 2.70724 11.1375 0.392786
3 0.158184 11.8465 -2.8735
3 5.25972 11.1381 -2.8897
3 5.29013 5.35418 2.88031
3 0.239431 6.0659 2.88787
1 2.3835 8.86845 8.66765
1 2.95185 8.4624 14.5701
1 2.60251 3.26578 8.70625
1 3.03895 14.3126 14.4154
2 -0.0699762 5.77988 5.79219
2 -0.153764 11.5987 5.71802
2 -0.0851627 5.76726 11.5901
2 -0.0699938 11.5347 11.5036
3 -0.552793 8.67758 6.11247
3 2.80799 6.25906 6.13968
3 5.83265 8.60227 17.0997
3 2.95397 11.4671 17.0058
3 -0.615345 8.65651 11.2851
3 2.80688 6.33608 11.3055
3 6.28097 8.6031 11.8852
3 2.81733 11.0341 11.8754
3 0.277124 11.9163 8.61142
3 5.30505 11.1822 8.65436
3 5.48636 5.54158 14.486
3 0.142117 5.93979 14.5029
4 2.9894 8.71285 19.6991
4 2.92331 2.79589 19.7906
2 0.028963 5.73228 17.4577
2 0.0730508 11.5048 17.3468
3 0.0647978 8.62152 17.354
3 2.91417 5.73491 17.448
3 0.182303 11.6174 20.3205
3 5.66606 11.376 20.3453
4 8.50583 14.3835 -19.7219
4 8.58995 19.771 -19.6743
3 11.4176 14.4421 -17.4237
3 8.58127 17.1962 -17.1502
3 11.5292 11.4204 -20.3327
3 5.78717 11.7526 -20.4156
1 8.50756 14.3803 -14.5058
1 8.74382 14.2797 -8.63061
1 8.47287 8.76715 -14.5413
4 8.50347 19.5087 -8.6403
2 5.72627 11.5739 -17.4535
2 5.70356 17.4016 -17.3905
2 5.65834 11.4403 -11.5631
2 5.71328 17.2629 -11.5713
3 5.70248 14.4636 -17.1942
3 8.60226 11.5654 -17.1937
3 11.7049 14.3203 -6.04304
3 8.56193 16.9525 -5.77293
3 5.27451 14.348 -11.8477
3 8.55022 11.9116 -11.7251
3 11.7621 14.3242 -11.2791
3 8.58814 16.8416 -11.5565
3 5.67731 17.3881 -14.4803
3 11.4554 17.0197 -14.4252
3 11.2532 11.0771 -8.65399
3 5.79507 11.8548 -8.67825
1 8.31355 14.5066 -2.92158
1 8.80145 14.3116 2.88341
1 8.33986 8.9377 -2.90088
4 8.56222 19.4906 2.85819
2 5.61611 11.4271 -5.79263
2 5.68733 17.2831 -5.80552
2 5.61894 11.4552 0.00790571
2 5.67279 17.2862 -0.0101212
3 5.39708 14.3378 -5.49423
3 8.52209 11.8264 -5.4839
3 11.704 14.305 5.56103
3 8.58096 16.9547 5.75341
3 5.31685 14.3572 -0.311796
3 8.5144 11.8483 -0.382479
3 11.7536 14.2999 0.241885
3 8.55872 16.8891 -0.00984911
3 5.64466 17.3767 -2.90902
3 11.3972 16.9049 -2.89203
3 11.0624 11.1444 2.87314
3 5.96748 11.8811 2.87784
1 8.33865 14.5614 8.63677
1 8.82924 14.326 14.3794
1 8.40712 8.91556 8.67712
4 8.67525 19.5577 14.2761
2 5.64821 11.4568 5.75099
2 5.69408 17.3029 5.74722
2 5.70581 11.4562 11.5506
2 5.75505 17.3237 11.5586
3 5.37782 14.3715 6.05959
3 8.53487 11.8504 6.1686
3 11.6295 14.3604 17.1432
3 8.77889 17.1072 17.1417
3 5.40899 14.3796 11.3205
3 8.59395 11.9321 11.2034
3 11.8197 14.3217 11.6902
3 8.63293 16.9516 11.5231
3 5.68339 17.3993 8.65631
3 11.4385 16.9453 8.63509
3 11.3454 11.3604 14.4445
3 6.04621 11.787 14.443
4 8.88988 14.3462 19.7437
4 8.61043 8.46611 19.6956
2 5.83591 11.4885 17.375
2 5.90356 17.2788 17.3841
3 5.90567 14.377 17.4779
3 8.72347 11.4324 17.4218
3 6.00708 17.3978 20.3767
3 11.6296 17.2398 20.3006
4 14.3395 19.762 -19.6218
3 16.9224 20.3744 -16.9345
3 16.9627 17.0821 -20.3132
3 11.4438 17.4285 -20.3422
4 14.166 19.6497 -14.358
4 14.2231 19.711 -8.69716
1 14.3371 14.3859 -14.3297
2 11.4708 17.3472 -17.3516
2 11.4636 17.2388 -11.5326
3 11.4379 20.3192 -17.1791
3 14.3484 17.1454 -17.1555
3 17.4297 20.3309 -5.77639
3 11.4408 20.2219 -11.6026
3 14.362 17.2785 -11.5235
3 17.31 20.326 -11.4209
3 17.0685 17.1538 -8.63905
3 11.4263 17.2519 -8.65376
4 13.998 19.6709 -2.89321
4 14.2009 19.6939 2.90637
1 14.2917 14.4311 -2.89894
2 11.4399 17.2483 -5.77201
2 11.4382 17.2189 -0.00890543
3 11.3203 20.2196 -5.6363
3 14.331 17.3664 -5.7789
3 17.4173 20.277 5.70692
3 11.3319 20.1927 -0.0886499
3 14.3292 17.373 -0.017206
3 17.4578 20.3045 0.0371496
3 17.049 17.1276 2.86222
3 11.4548 17.1877 2.87644
4 14.1146 19.6476 8.60663
4 14.4157 19.647 14.387
1 14.3125 14.3807 8.58746
2 11.4658 17.2357 5.75526
2 11.5204 17.2437 11.5172
3 11.4283 20.2073 5.84674
3 14.3614 17.2817 5.76103
3 17.1778 20.2218 16.986
3 11.3747 20.215 11.4072
3 14.4077 17.3484 11.4854
3 17.4546 20.2669 11.5006
3 17.1917 17.0729 14.3651
3 11.5804 17.2177 14.4099
4 14.5795 19.5894 19.6799
4 14.4748 14.2243 19.6031
2 11.6651 17.2892 17.3256
3 11.7162 20.2777 17.276
3 14.5369 17.051 17.1344
4 19.6328 19.693 -14.3473
4 19.7342 19.5373 -2.87935
4 19.7524 19.5295 8.58887
4 -19.7524 -19.5295 -8.58887
4 -19.7342 -19.5373 2.87935
4 -19.6328 -19.693 14.3473
4 -14.5795 -19.5894 -19.6799
4 -14.4748 -14.2243 -19.6031
3 -11.7162 -20.2777 -17.276
3 -14.5369 -17.051 -17.1344
4 -14.4157 -19.647 -14.387
4 -14.1146 -19.6476 -8.60663
1 -14.3125 -14.3807 -8.58746
2 -17.5102 -17.2613 -17.3254
2 -17.3167 -17.2819 -11.4878
3 -17.1778 -20.2218 -16.986
3 -11.4283 -20.2073 -5.84674
3 -14.3614 -17.2817 -5.76103
3 -17.4546 -20.2669 -11.5006
3 -11.3747 -20.215 -11.4072
3 -14.4077 -17.3484 -11.4854
3 -17.1917 -17.0729 -14.3651
3 -11.5804 -17.2177 -14.4099
4 -14.2009 -19.6939 -2.90637
4 -13.998 -19.6709 2.89321
1 -14.2917 -14.4311 2.89894
2 -17.2779 -17.3008 -5.73471
2 -17.24 -17.3291 0.0120828
3 -17.4173 -20.277 -5.70692
3 -11.3203 -20.2196 5.6363
3 -14.331 -17.3664 5.7789
3 -17.4578 -20.3045 -0.0371496
3 -11.3319 -20.1927 0.0886499
3 -14.3292 -17.373 0.017206
3 -17.049 -17.1276 -2.86222
3 -11.4548 -17.1877 -2.87644
4 -14.2231 -19.711 8.69716
4 -14.166 -19.6497 14.358
1 -14.3371 -14.3859 14.3297
2 -17.2444 -17.3571 5.76391
2 -17.276 -17.3455 11.5189
3 -17.4297 -20.3309 5.77639
3 -11.4379 -20.3192 17.1791
3 -14.3484 -17.1454 17.1555
3 -17.31 -20.326 11.4209
3 -11.4408 -20.2219 11.6026
3 -14.362 -17.2785 11.5235
3 -17.0685 -17.1538 8.63905
3 -11.4263 -17.2519 8.65376
4 -14.3395 -19.762 19.6218
2 -17.3162 -17.4288 17.3544
3 -16.9224 -20.3744 16.9345
3 -16.9627 -17.0821 20.3132
3 -11.4438 -17.4285 20.3422
4 -8.88988 -14.3462 -19.7437
4 -8.61043 -8.46611 -19.6956
3 -5.90567 -14.377 -17.4779
3 -8.72347 -11.4324 -17.4218
3 -6.00708 -17.3978 -20.3767
3 -11.6296 -17.2398 -20.3006
1 -8.82924 -14.326 -14.3794
1 -8.33865 -14.5614 -8.63677
4 -8.67525 -19.5577 -14.2761
1 -8.40712 -8.91556 -8.67712
2 -11.6651 -17.2892 -17.3256
2 -11.6061 -11.4743 -17.3837
2 -11.5204 -17.2437 -11.5172
2 -11.4623 -11.41 -11.5246
3 -11.6295 -14.3604 -17.1432
3 -8.77889 -17.1072 -17.1417
3 -5.37782 -14.3715 -6.05959
3 -8.53487 -11.8504 -6.1686
3 -11.8197 -14.3217 -11.6902
3 -8.63293 -16.9516 -11.5231
3 -5.40899 -14.3796 -11.3205
3 -8.59395 -11.9321 -11.2034
3 -11.3454 -11.3604 -14.4445
3 -6.04621 -11.787 -14.443
3 -5.68339 -17.3993 -8.65631
3 -11.4385 -16.9453 -8.63509
1 -8.80145 -14.3116 -2.88341
1 -8.31355 -14.5066 2.92158
4 -8.56222 -19.4906 -2.85819
1 -8.33986 -8.9377 2.90088
2 -11.4658 -17.2357 -5.75526
2 -11.3972 -11.3968 -5.76323
2 -11.4382 -17.2189 0.00890543
2 -11.3888 -11.3994 0.0128373
3 -11.704 -14.305 -5.56103
3 -8.58096 -16.9547 -5.75341
3 -5.39708 -14.3378 5.49423
3 -8.52209 -11.8264 5.4839
3 -11.7536 -14.2999 -0.241885
3 -8.55872 -16.8891 0.00984911
3 -5.31685 -14.3572 0.311796
3 -8.5144 -11.8483 0.382479
3 -11.0624 -11.1444 -2.87314
3 -5.96748 -11.8811 -2.87784
3 -5.64466 -17.3767 2.90902
3 -11.3972 -16.9049 2.89203
1 -8.74382 -14.2797 8.63061
1 -8.50756 -14.3803 14.5058