#LAMMPS configuration without high energy Cs 

2023 atoms 

4 atom types

-520.626793   520.626793    xlo xhi
-520.685841   520.685841    ylo yhi
-520.536216   520.536216    zlo zhi

Masses

1   132.910000   # Cs
2   207.200000   # Pb
3   79.904000   # Br
4   132.910000   # Cs

Atoms

1   1   3   -0.630000   -16.885001   20.396440   -18.022231   
2   2   3   -0.630000   -17.871440   17.151960   -20.536216   
3   3   4   0.700799   -20.626793   20.685841   -14.668725   
4   4   4   0.700799   -20.218455   20.159407   -8.801235   
5   5   4   0.700799   -20.609469   14.868130   -14.668725   
6   6   3   -0.630000   -20.431484   18.142535   -17.182710   
7   7   3   -0.630000   -16.885001   20.396440   -6.287250   
8   8   3   -0.630000   -20.431484   18.142535   -12.154741   
9   9   3   -0.630000   -16.885001   20.396440   -11.315220   
10   10   3   -0.630000   -17.871440   17.151960   -8.801235   
11   11   4   0.700799   -20.626793   20.685841   -2.933745   
12   12   4   0.700799   -20.218455   20.159407   2.933745   
13   13   4   0.700799   -20.609469   14.868130   -2.933745   
14   14   3   -0.630000   -20.431484   18.142535   -5.447730   
15   15   3   -0.630000   -16.885001   20.396440   5.447730   
16   16   3   -0.630000   -20.431484   18.142535   -0.419760   
17   17   3   -0.630000   -16.885001   20.396440   0.419760   
18   18   3   -0.630000   -17.871440   17.151960   2.933745   
19   19   4   0.700799   -20.626793   20.685841   8.801235   
20   20   4   0.700799   -20.218455   20.159407   14.668725   
21   21   4   0.700799   -20.609469   14.868130   8.801235   
22   22   3   -0.630000   -20.431484   18.142535   6.287250   
23   23   3   -0.630000   -16.885001   20.396440   17.182710   
24   24   3   -0.630000   -20.431484   18.142535   11.315220   
25   25   3   -0.630000   -16.885001   20.396440   12.154741   
26   26   3   -0.630000   -17.871440   17.151960   14.668725   
27   27   4   0.700799   -20.609469   14.868130   20.536216   
28   28   3   -0.630000   -20.431484   18.142535   18.022231   
29   29   4   0.700799   -14.809082   20.668517   -14.668725   
30   30   4   0.700799   -14.809082   20.668517   -2.933745   
31   31   4   0.700799   -14.809082   20.668517   8.801235   
32   32   4   0.700799   -14.809082   20.668517   20.536216   
33   33   4   0.700799   -20.183806   8.523984   -20.536216   
34   34   4   0.700799   -20.201130   14.341695   -20.536216   
35   35   3   -0.630000   -16.850353   8.761017   -18.022231   
36   36   3   -0.630000   -20.379116   11.067290   -18.022231   
37   37   3   -0.630000   -17.836791   5.516537   -20.536216   
38   38   4   0.700799   -20.592145   9.050418   -14.668725   
39   39   4   0.700799   -20.183806   8.523984   -8.801235   
40   40   4   0.700799   -20.574821   3.232707   -14.668725   
41   41   4   0.700799   -20.201130   14.341695   -8.801235   
42   42   3   -0.630000   -20.396835   6.507112   -17.182710   
43   43   3   -0.630000   -16.850353   8.761017   -6.287250   
44   44   3   -0.630000   -20.379116   11.067290   -6.287250   
45   45   3   -0.630000   -20.396835   6.507112   -12.154741   
46   46   3   -0.630000   -16.850353   8.761017   -11.315220   
47   47   3   -0.630000   -20.379116   11.067290   -11.315220   
48   48   3   -0.630000   -17.840928   11.321061   -14.668725   
49   49   3   -0.630000   -17.836791   5.516537   -8.801235   
50   50   4   0.700799   -20.592145   9.050418   -2.933745   
51   51   4   0.700799   -20.183806   8.523984   2.933745   
52   52   4   0.700799   -20.574821   3.232707   -2.933745   
53   53   4   0.700799   -20.201130   14.341695   2.933745   
54   54   3   -0.630000   -20.396835   6.507112   -5.447730   
55   55   3   -0.630000   -16.850353   8.761017   5.447730   
56   56   3   -0.630000   -20.379116   11.067290   5.447730   
57   57   3   -0.630000   -20.396835   6.507112   -0.419760   
58   58   3   -0.630000   -16.850353   8.761017   0.419760   
59   59   3   -0.630000   -20.379116   11.067290   0.419760   
60   60   3   -0.630000   -17.840928   11.321061   -2.933745   
61   61   3   -0.630000   -17.836791   5.516537   2.933745   
62   62   4   0.700799   -20.592145   9.050418   8.801235   
63   63   4   0.700799   -20.183806   8.523984   14.668725   
64   64   4   0.700799   -20.574821   3.232707   8.801235   
65   65   4   0.700799   -20.201130   14.341695   14.668725   
66   66   3   -0.630000   -20.396835   6.507112   6.287250   
67   67   3   -0.630000   -16.850353   8.761017   17.182710   
68   68   3   -0.630000   -20.379116   11.067290   17.182710   
69   69   3   -0.630000   -20.396835   6.507112   11.315220   
70   70   3   -0.630000   -16.850353   8.761017   12.154741   
71   71   3   -0.630000   -20.379116   11.067290   12.154741   
72   72   3   -0.630000   -17.840928   11.321061   8.801235   
73   73   3   -0.630000   -17.836791   5.516537   14.668725   
74   74   4   0.700799   -20.592145   9.050418   20.536216   
75   75   4   0.700799   -20.574821   3.232707   20.536216   
76   76   3   -0.630000   -20.396835   6.507112   18.022231   
77   77   3   -0.630000   -17.840928   11.321061   20.536216   
78   78   4   0.700799   -14.383419   14.324371   -20.536216   
79   79   4   0.700799   -14.400743   20.142083   -20.536216   
80   80   3   -0.630000   -11.049966   14.561404   -18.022231   
81   81   3   -0.630000   -14.578729   16.867677   -18.022231   
82   82   3   -0.630000   -12.036404   11.316924   -20.536216   
83   83   3   -0.630000   -17.134636   12.053728   -20.536216   
84   84   1   0.860000   -14.791758   14.850806   -14.668725   
85   85   1   0.860000   -14.383419   14.324371   -8.801235   
86   86   1   0.860000   -14.774433   9.033094   -14.668725   
87   87   4   0.700799   -14.400743   20.142083   -8.801235   
88   88   2   1.030000   -17.487782   11.687395   -17.602470   
89   89   2   1.030000   -17.505106   17.505106   -17.602470   
90   90   2   1.030000   -17.487782   11.687395   -11.734980   
91   91   2   1.030000   -17.505106   17.505106   -11.734980   
92   92   3   -0.630000   -18.125211   14.613772   -17.182710   
93   93   3   -0.630000   -14.596448   12.307499   -17.182710   
94   94   3   -0.630000   -11.049966   14.561404   -6.287250   
95   95   3   -0.630000   -14.578729   16.867677   -6.287250   
96   96   3   -0.630000   -18.125211   14.613772   -12.154741   
97   97   3   -0.630000   -14.596448   12.307499   -12.154741   
98   98   3   -0.630000   -11.049966   14.561404   -11.315220   
99   99   3   -0.630000   -14.578729   16.867677   -11.315220   
100   100   3   -0.630000   -17.138772   17.858252   -14.668725   
101   101   3   -0.630000   -12.040541   17.121448   -14.668725   
102   102   3   -0.630000   -12.036404   11.316924   -8.801235   
103   103   3   -0.630000   -17.134636   12.053728   -8.801235   
104   104   1   0.860000   -14.791758   14.850806   -2.933745   
105   105   1   0.860000   -14.383419   14.324371   2.933745   
106   106   1   0.860000   -14.774433   9.033094   -2.933745   
107   107   4   0.700799   -14.400743   20.142083   2.933745   
108   108   2   1.030000   -17.487782   11.687395   -5.867490   
109   109   2   1.030000   -17.505106   17.505106   -5.867490   
110   110   2   1.030000   -17.487782   11.687395   -0.000000   
111   111   2   1.030000   -17.505106   17.505106   -0.000000   
112   112   3   -0.630000   -18.125211   14.613772   -5.447730   
113   113   3   -0.630000   -14.596448   12.307499   -5.447730   
114   114   3   -0.630000   -11.049966   14.561404   5.447730   
115   115   3   -0.630000   -14.578729   16.867677   5.447730   
116   116   3   -0.630000   -18.125211   14.613772   -0.419760   
117   117   3   -0.630000   -14.596448   12.307499   -0.419760   
118   118   3   -0.630000   -11.049966   14.561404   0.419760   
119   119   3   -0.630000   -14.578729   16.867677   0.419760   
120   120   3   -0.630000   -17.138772   17.858252   -2.933745   
121   121   3   -0.630000   -12.040541   17.121448   -2.933745   
122   122   3   -0.630000   -12.036404   11.316924   2.933745   
123   123   3   -0.630000   -17.134636   12.053728   2.933745   
124   124   1   0.860000   -14.791758   14.850806   8.801235   
125   125   1   0.860000   -14.383419   14.324371   14.668725   
126   126   1   0.860000   -14.774433   9.033094   8.801235   
127   127   4   0.700799   -14.400743   20.142083   14.668725   
128   128   2   1.030000   -17.487782   11.687395   5.867490   
129   129   2   1.030000   -17.505106   17.505106   5.867490   
130   130   2   1.030000   -17.487782   11.687395   11.734980   
131   131   2   1.030000   -17.505106   17.505106   11.734980   
132   132   3   -0.630000   -18.125211   14.613772   6.287250   
133   133   3   -0.630000   -14.596448   12.307499   6.287250   
134   134   3   -0.630000   -11.049966   14.561404   17.182710   
135   135   3   -0.630000   -14.578729   16.867677   17.182710   
136   136   3   -0.630000   -18.125211   14.613772   11.315220   
137   137   3   -0.630000   -14.596448   12.307499   11.315220   
138   138   3   -0.630000   -11.049966   14.561404   12.154741   
139   139   3   -0.630000   -14.578729   16.867677   12.154741   
140   140   3   -0.630000   -17.138772   17.858252   8.801235   
141   141   3   -0.630000   -12.040541   17.121448   8.801235   
142   142   3   -0.630000   -12.036404   11.316924   14.668725   
143   143   3   -0.630000   -17.134636   12.053728   14.668725   
144   144   4   0.700799   -14.791758   14.850806   20.536216   
145   145   4   0.700799   -14.774433   9.033094   20.536216   
146   146   2   1.030000   -17.487782   11.687395   17.602470   
147   147   2   1.030000   -17.505106   17.505106   17.602470   
148   148   3   -0.630000   -18.125211   14.613772   18.022231   
149   149   3   -0.630000   -14.596448   12.307499   18.022231   
150   150   3   -0.630000   -17.138772   17.858252   20.536216   
151   151   3   -0.630000   -12.040541   17.121448   20.536216   
152   152   4   0.700799   -8.583032   20.124758   -20.536216   
153   153   3   -0.630000   -5.249579   20.361792   -18.022231   
154   154   3   -0.630000   -6.236017   17.117311   -20.536216   
155   155   3   -0.630000   -11.334248   17.854116   -20.536216   
156   156   4   0.700799   -8.991370   20.651193   -14.668725   
157   157   4   0.700799   -8.583032   20.124758   -8.801235   
158   158   1   0.860000   -8.974046   14.833481   -14.668725   
159   159   2   1.030000   -11.687395   17.487782   -17.602470   
160   160   2   1.030000   -11.687395   17.487782   -11.734980   
161   161   3   -0.630000   -12.324824   20.414159   -17.182710   
162   162   3   -0.630000   -8.796061   18.107887   -17.182710   
163   163   3   -0.630000   -5.249579   20.361792   -6.287250   
164   164   3   -0.630000   -12.324824   20.414159   -12.154741   
165   165   3   -0.630000   -8.796061   18.107887   -12.154741   
166   166   3   -0.630000   -5.249579   20.361792   -11.315220   
167   167   3   -0.630000   -6.236017   17.117311   -8.801235   
168   168   3   -0.630000   -11.334248   17.854116   -8.801235   
169   169   4   0.700799   -8.991370   20.651193   -2.933745   
170   170   4   0.700799   -8.583032   20.124758   2.933745   
171   171   1   0.860000   -8.974046   14.833481   -2.933745   
172   172   2   1.030000   -11.687395   17.487782   -5.867490   
173   173   2   1.030000   -11.687395   17.487782   -0.000000   
174   174   3   -0.630000   -12.324824   20.414159   -5.447730   
175   175   3   -0.630000   -8.796061   18.107887   -5.447730   
176   176   3   -0.630000   -5.249579   20.361792   5.447730   
177   177   3   -0.630000   -12.324824   20.414159   -0.419760   
178   178   3   -0.630000   -8.796061   18.107887   -0.419760   
179   179   3   -0.630000   -5.249579   20.361792   0.419760   
180   180   3   -0.630000   -6.236017   17.117311   2.933745   
181   181   3   -0.630000   -11.334248   17.854116   2.933745   
182   182   4   0.700799   -8.991370   20.651193   8.801235   
183   183   4   0.700799   -8.583032   20.124758   14.668725   
184   184   1   0.860000   -8.974046   14.833481   8.801235   
185   185   2   1.030000   -11.687395   17.487782   5.867490   
186   186   2   1.030000   -11.687395   17.487782   11.734980   
187   187   3   -0.630000   -12.324824   20.414159   6.287250   
188   188   3   -0.630000   -8.796061   18.107887   6.287250   
189   189   3   -0.630000   -5.249579   20.361792   17.182710   
190   190   3   -0.630000   -12.324824   20.414159   11.315220   
191   191   3   -0.630000   -8.796061   18.107887   11.315220   
192   192   3   -0.630000   -5.249579   20.361792   12.154741   
193   193   3   -0.630000   -6.236017   17.117311   14.668725   
194   194   3   -0.630000   -11.334248   17.854116   14.668725   
195   195   4   0.700799   -8.991370   20.651193   20.536216   
196   196   4   0.700799   -8.974046   14.833481   20.536216   
197   197   2   1.030000   -11.687395   17.487782   17.602470   
198   198   3   -0.630000   -12.324824   20.414159   18.022231   
199   199   3   -0.630000   -8.796061   18.107887   18.022231   
200   200   4   0.700799   -3.173659   20.633869   -14.668725   
201   201   4   0.700799   -3.173659   20.633869   -2.933745   
202   202   4   0.700799   -3.173659   20.633869   8.801235   
203   203   4   0.700799   -3.173659   20.633869   20.536216   
204   204   4   0.700799   -20.149158   -3.111438   -20.536216   
205   205   4   0.700799   -20.166482   2.706273   -20.536216   
206   206   3   -0.630000   -16.815705   -2.874405   -18.022231   
207   207   3   -0.630000   -20.344468   -0.568132   -18.022231   
208   208   3   -0.630000   -17.802143   -6.118885   -20.536216   
209   209   4   0.700799   -20.557497   -2.585004   -14.668725   
210   210   4   0.700799   -20.149158   -3.111438   -8.801235   
211   211   4   0.700799   -20.540173   -8.402715   -14.668725   
212   212   4   0.700799   -20.166482   2.706273   -8.801235   
213   213   3   -0.630000   -20.362187   -5.128310   -17.182710   
214   214   3   -0.630000   -16.815705   -2.874405   -6.287250   
215   215   3   -0.630000   -20.344468   -0.568132   -6.287250   
216   216   3   -0.630000   -20.362187   -5.128310   -12.154741   
217   217   3   -0.630000   -16.815705   -2.874405   -11.315220   
218   218   3   -0.630000   -20.344468   -0.568132   -11.315220   
219   219   3   -0.630000   -17.806280   -0.314361   -14.668725   
220   220   3   -0.630000   -17.802143   -6.118885   -8.801235   
221   221   4   0.700799   -20.557497   -2.585004   -2.933745   
222   222   4   0.700799   -20.149158   -3.111438   2.933745   
223   223   4   0.700799   -20.540173   -8.402715   -2.933745   
224   224   4   0.700799   -20.166482   2.706273   2.933745   
225   225   3   -0.630000   -20.362187   -5.128310   -5.447730   
226   226   3   -0.630000   -16.815705   -2.874405   5.447730   
227   227   3   -0.630000   -20.344468   -0.568132   5.447730   
228   228   3   -0.630000   -20.362187   -5.128310   -0.419760   
229   229   3   -0.630000   -16.815705   -2.874405   0.419760   
230   230   3   -0.630000   -20.344468   -0.568132   0.419760   
231   231   3   -0.630000   -17.806280   -0.314361   -2.933745   
232   232   3   -0.630000   -17.802143   -6.118885   2.933745   
233   233   4   0.700799   -20.557497   -2.585004   8.801235   
234   234   4   0.700799   -20.149158   -3.111438   14.668725   
235   235   4   0.700799   -20.540173   -8.402715   8.801235   
236   236   4   0.700799   -20.166482   2.706273   14.668725   
237   237   3   -0.630000   -20.362187   -5.128310   6.287250   
238   238   3   -0.630000   -16.815705   -2.874405   17.182710   
239   239   3   -0.630000   -20.344468   -0.568132   17.182710   
240   240   3   -0.630000   -20.362187   -5.128310   11.315220   
241   241   3   -0.630000   -16.815705   -2.874405   12.154741   
242   242   3   -0.630000   -20.344468   -0.568132   12.154741   
243   243   3   -0.630000   -17.806280   -0.314361   8.801235   
244   244   3   -0.630000   -17.802143   -6.118885   14.668725   
245   245   4   0.700799   -20.557497   -2.585004   20.536216   
246   246   4   0.700799   -20.540173   -8.402715   20.536216   
247   247   3   -0.630000   -20.362187   -5.128310   18.022231   
248   248   3   -0.630000   -17.806280   -0.314361   20.536216   
249   249   4   0.700799   -14.348771   2.688949   -20.536216   
250   250   4   0.700799   -14.366095   8.506660   -20.536216   
251   251   3   -0.630000   -11.015318   2.925982   -18.022231   
252   252   3   -0.630000   -14.544080   5.232255   -18.022231   
253   253   3   -0.630000   -12.001756   -0.318498   -20.536216   
254   254   3   -0.630000   -17.099987   0.418306   -20.536216   
255   255   1   0.860000   -14.757109   3.215383   -14.668725   
256   256   1   0.860000   -14.348771   2.688949   -8.801235   
257   257   1   0.860000   -14.739785   -2.602328   -14.668725   
258   258   1   0.860000   -14.366095   8.506660   -8.801235   
259   259   2   1.030000   -17.453134   0.051972   -17.602470   
260   260   2   1.030000   -17.470458   5.869684   -17.602470   
261   261   2   1.030000   -17.453134   0.051972   -11.734980   
262   262   2   1.030000   -17.470458   5.869684   -11.734980   
263   263   3   -0.630000   -18.090563   2.978350   -17.182710   
264   264   3   -0.630000   -14.561800   0.672077   -17.182710   
265   265   3   -0.630000   -11.015318   2.925982   -6.287250   
266   266   3   -0.630000   -14.544080   5.232255   -6.287250   
267   267   3   -0.630000   -18.090563   2.978350   -12.154741   
268   268   3   -0.630000   -14.561800   0.672077   -12.154741   
269   269   3   -0.630000   -11.015318   2.925982   -11.315220   
270   270   3   -0.630000   -14.544080   5.232255   -11.315220   
271   271   3   -0.630000   -17.104124   6.222830   -14.668725   
272   272   3   -0.630000   -12.005893   5.486026   -14.668725   
273   273   3   -0.630000   -12.001756   -0.318498   -8.801235   
274   274   3   -0.630000   -17.099987   0.418306   -8.801235   
275   275   1   0.860000   -14.757109   3.215383   -2.933745   
276   276   1   0.860000   -14.348771   2.688949   2.933745   
277   277   1   0.860000   -14.739785   -2.602328   -2.933745   
278   278   1   0.860000   -14.366095   8.506660   2.933745   
279   279   2   1.030000   -17.453134   0.051972   -5.867490   
280   280   2   1.030000   -17.470458   5.869684   -5.867490   
281   281   2   1.030000   -17.453134   0.051972   -0.000000   
282   282   2   1.030000   -17.470458   5.869684   -0.000000   
283   283   3   -0.630000   -18.090563   2.978350   -5.447730   
284   284   3   -0.630000   -14.561800   0.672077   -5.447730   
285   285   3   -0.630000   -11.015318   2.925982   5.447730   
286   286   3   -0.630000   -14.544080   5.232255   5.447730   
287   287   3   -0.630000   -18.090563   2.978350   -0.419760   
288   288   3   -0.630000   -14.561800   0.672077   -0.419760   
289   289   3   -0.630000   -11.015318   2.925982   0.419760   
290   290   3   -0.630000   -14.544080   5.232255   0.419760   
291   291   3   -0.630000   -17.104124   6.222830   -2.933745   
292   292   3   -0.630000   -12.005893   5.486026   -2.933745   
293   293   3   -0.630000   -12.001756   -0.318498   2.933745   
294   294   3   -0.630000   -17.099987   0.418306   2.933745   
295   295   1   0.860000   -14.757109   3.215383   8.801235   
296   296   1   0.860000   -14.348771   2.688949   14.668725   
297   297   1   0.860000   -14.739785   -2.602328   8.801235   
298   298   1   0.860000   -14.366095   8.506660   14.668725   
299   299   2   1.030000   -17.453134   0.051972   5.867490   
300   300   2   1.030000   -17.470458   5.869684   5.867490   
301   301   2   1.030000   -17.453134   0.051972   11.734980   
302   302   2   1.030000   -17.470458   5.869684   11.734980   
303   303   3   -0.630000   -18.090563   2.978350   6.287250   
304   304   3   -0.630000   -14.561800   0.672077   6.287250   
305   305   3   -0.630000   -11.015318   2.925982   17.182710   
306   306   3   -0.630000   -14.544080   5.232255   17.182710   
307   307   3   -0.630000   -18.090563   2.978350   11.315220   
308   308   3   -0.630000   -14.561800   0.672077   11.315220   
309   309   3   -0.630000   -11.015318   2.925982   12.154741   
310   310   3   -0.630000   -14.544080   5.232255   12.154741   
311   311   3   -0.630000   -17.104124   6.222830   8.801235   
312   312   3   -0.630000   -12.005893   5.486026   8.801235   
313   313   3   -0.630000   -12.001756   -0.318498   14.668725   
314   314   3   -0.630000   -17.099987   0.418306   14.668725   
315   315   4   0.700799   -14.757109   3.215383   20.536216   
316   316   4   0.700799   -14.739785   -2.602328   20.536216   
317   317   2   1.030000   -17.453134   0.051972   17.602470   
318   318   2   1.030000   -17.470458   5.869684   17.602470   
319   319   3   -0.630000   -18.090563   2.978350   18.022231   
320   320   3   -0.630000   -14.561800   0.672077   18.022231   
321   321   3   -0.630000   -17.104124   6.222830   20.536216   
322   322   3   -0.630000   -12.005893   5.486026   20.536216   
323   323   4   0.700799   -8.548384   8.489336   -20.536216   
324   324   4   0.700799   -8.565708   14.307047   -20.536216   
325   325   3   -0.630000   -5.214931   8.726369   -18.022231   
326   326   3   -0.630000   -8.743693   11.032642   -18.022231   
327   327   3   -0.630000   -6.201369   5.481889   -20.536216   
328   328   3   -0.630000   -11.299600   6.218693   -20.536216   
329   329   1   0.860000   -8.956722   9.015770   -14.668725   
330   330   1   0.860000   -8.548384   8.489336   -8.801235   
331   331   1   0.860000   -8.939398   3.198059   -14.668725   
332   332   1   0.860000   -8.565708   14.307047   -8.801235   
333   333   2   1.030000   -11.652747   5.852359   -17.602470   
334   334   2   1.030000   -11.670071   11.670071   -17.602470   
335   335   2   1.030000   -11.652747   5.852359   -11.734980   
336   336   2   1.030000   -11.670071   11.670071   -11.734980   
337   337   3   -0.630000   -12.290175   8.778737   -17.182710   
338   338   3   -0.630000   -8.761413   6.472464   -17.182710   
339   339   3   -0.630000   -5.214931   8.726369   -6.287250   
340   340   3   -0.630000   -8.743693   11.032642   -6.287250   
341   341   3   -0.630000   -12.290175   8.778737   -12.154741   
342   342   3   -0.630000   -8.761413   6.472464   -12.154741   
343   343   3   -0.630000   -5.214931   8.726369   -11.315220   
344   344   3   -0.630000   -8.743693   11.032642   -11.315220   
345   345   3   -0.630000   -11.303737   12.023217   -14.668725   
346   346   3   -0.630000   -6.205506   11.286413   -14.668725   
347   347   3   -0.630000   -6.201369   5.481889   -8.801235   
348   348   3   -0.630000   -11.299600   6.218693   -8.801235   
349   349   1   0.860000   -8.956722   9.015770   -2.933745   
350   350   1   0.860000   -8.548384   8.489336   2.933745   
351   351   1   0.860000   -8.939398   3.198059   -2.933745   
352   352   1   0.860000   -8.565708   14.307047   2.933745   
353   353   2   1.030000   -11.652747   5.852359   -5.867490   
354   354   2   1.030000   -11.670071   11.670071   -5.867490   
355   355   2   1.030000   -11.652747   5.852359   -0.000000   
356   356   2   1.030000   -11.670071   11.670071   -0.000000   
357   357   3   -0.630000   -12.290175   8.778737   -5.447730   
358   358   3   -0.630000   -8.761413   6.472464   -5.447730   
359   359   3   -0.630000   -5.214931   8.726369   5.447730   
360   360   3   -0.630000   -8.743693   11.032642   5.447730   
361   361   3   -0.630000   -12.290175   8.778737   -0.419760   
362   362   3   -0.630000   -8.761413   6.472464   -0.419760   
363   363   3   -0.630000   -5.214931   8.726369   0.419760   
364   364   3   -0.630000   -8.743693   11.032642   0.419760   
365   365   3   -0.630000   -11.303737   12.023217   -2.933745   
366   366   3   -0.630000   -6.205506   11.286413   -2.933745   
367   367   3   -0.630000   -6.201369   5.481889   2.933745   
368   368   3   -0.630000   -11.299600   6.218693   2.933745   
369   369   1   0.860000   -8.956722   9.015770   8.801235   
370   370   1   0.860000   -8.548384   8.489336   14.668725   
371   371   1   0.860000   -8.939398   3.198059   8.801235   
372   372   1   0.860000   -8.565708   14.307047   14.668725   
373   373   2   1.030000   -11.652747   5.852359   5.867490   
374   374   2   1.030000   -11.670071   11.670071   5.867490   
375   375   2   1.030000   -11.652747   5.852359   11.734980   
376   376   2   1.030000   -11.670071   11.670071   11.734980   
377   377   3   -0.630000   -12.290175   8.778737   6.287250   
378   378   3   -0.630000   -8.761413   6.472464   6.287250   
379   379   3   -0.630000   -5.214931   8.726369   17.182710   
380   380   3   -0.630000   -8.743693   11.032642   17.182710   
381   381   3   -0.630000   -12.290175   8.778737   11.315220   
382   382   3   -0.630000   -8.761413   6.472464   11.315220   
383   383   3   -0.630000   -5.214931   8.726369   12.154741   
384   384   3   -0.630000   -8.743693   11.032642   12.154741   
385   385   3   -0.630000   -11.303737   12.023217   8.801235   
386   386   3   -0.630000   -6.205506   11.286413   8.801235   
387   387   3   -0.630000   -6.201369   5.481889   14.668725   
388   388   3   -0.630000   -11.299600   6.218693   14.668725   
389   389   4   0.700799   -8.956722   9.015770   20.536216   
390   390   4   0.700799   -8.939398   3.198059   20.536216   
391   391   2   1.030000   -11.652747   5.852359   17.602470   
392   392   2   1.030000   -11.670071   11.670071   17.602470   
393   393   3   -0.630000   -12.290175   8.778737   18.022231   
394   394   3   -0.630000   -8.761413   6.472464   18.022231   
395   395   3   -0.630000   -11.303737   12.023217   20.536216   
396   396   3   -0.630000   -6.205506   11.286413   20.536216   
397   397   4   0.700799   -2.747997   14.289723   -20.536216   
398   398   4   0.700799   -2.765321   20.107434   -20.536216   
399   399   3   -0.630000   0.585456   14.526756   -18.022231   
400   400   3   -0.630000   -2.943306   16.833029   -18.022231   
401   401   3   -0.630000   -0.400982   11.282276   -20.536216   
402   402   3   -0.630000   -5.499213   12.019080   -20.536216   
403   403   1   0.860000   -3.156335   14.816157   -14.668725   
404   404   1   0.860000   -2.747997   14.289723   -8.801235   
405   405   1   0.860000   -3.139011   8.998446   -14.668725   
406   406   4   0.700799   -2.765321   20.107434   -8.801235   
407   407   2   1.030000   -5.852359   11.652747   -17.602470   
408   408   2   1.030000   -5.869684   17.470458   -17.602470   
409   409   2   1.030000   -5.852359   11.652747   -11.734980   
410   410   2   1.030000   -5.869684   17.470458   -11.734980   
411   411   3   -0.630000   -6.489788   14.579124   -17.182710   
412   412   3   -0.630000   -2.961026   12.272851   -17.182710   
413   413   3   -0.630000   0.585456   14.526756   -6.287250   
414   414   3   -0.630000   -2.943306   16.833029   -6.287250   
415   415   3   -0.630000   -6.489788   14.579124   -12.154741   
416   416   3   -0.630000   -2.961026   12.272851   -12.154741   
417   417   3   -0.630000   0.585456   14.526756   -11.315220   
418   418   3   -0.630000   -2.943306   16.833029   -11.315220   
419   419   3   -0.630000   -5.503350   17.823604   -14.668725   
420   420   3   -0.630000   -0.405119   17.086800   -14.668725   
421   421   3   -0.630000   -0.400982   11.282276   -8.801235   
422   422   3   -0.630000   -5.499213   12.019080   -8.801235   
423   423   1   0.860000   -3.156335   14.816157   -2.933745   
424   424   1   0.860000   -2.747997   14.289723   2.933745   
425   425   1   0.860000   -3.139011   8.998446   -2.933745   
426   426   4   0.700799   -2.765321   20.107434   2.933745   
427   427   2   1.030000   -5.852359   11.652747   -5.867490   
428   428   2   1.030000   -5.869684   17.470458   -5.867490   
429   429   2   1.030000   -5.852359   11.652747   -0.000000   
430   430   2   1.030000   -5.869684   17.470458   -0.000000   
431   431   3   -0.630000   -6.489788   14.579124   -5.447730   
432   432   3   -0.630000   -2.961026   12.272851   -5.447730   
433   433   3   -0.630000   0.585456   14.526756   5.447730   
434   434   3   -0.630000   -2.943306   16.833029   5.447730   
435   435   3   -0.630000   -6.489788   14.579124   -0.419760   
436   436   3   -0.630000   -2.961026   12.272851   -0.419760   
437   437   3   -0.630000   0.585456   14.526756   0.419760   
438   438   3   -0.630000   -2.943306   16.833029   0.419760   
439   439   3   -0.630000   -5.503350   17.823604   -2.933745   
440   440   3   -0.630000   -0.405119   17.086800   -2.933745   
441   441   3   -0.630000   -0.400982   11.282276   2.933745   
442   442   3   -0.630000   -5.499213   12.019080   2.933745   
443   443   1   0.860000   -3.156335   14.816157   8.801235   
444   444   1   0.860000   -2.747997   14.289723   14.668725   
445   445   1   0.860000   -3.139011   8.998446   8.801235   
446   446   4   0.700799   -2.765321   20.107434   14.668725   
447   447   2   1.030000   -5.852359   11.652747   5.867490   
448   448   2   1.030000   -5.869684   17.470458   5.867490   
449   449   2   1.030000   -5.852359   11.652747   11.734980   
450   450   2   1.030000   -5.869684   17.470458   11.734980   
451   451   3   -0.630000   -6.489788   14.579124   6.287250   
452   452   3   -0.630000   -2.961026   12.272851   6.287250   
453   453   3   -0.630000   0.585456   14.526756   17.182710   
454   454   3   -0.630000   -2.943306   16.833029   17.182710   
455   455   3   -0.630000   -6.489788   14.579124   11.315220   
456   456   3   -0.630000   -2.961026   12.272851   11.315220   
457   457   3   -0.630000   0.585456   14.526756   12.154741   
458   458   3   -0.630000   -2.943306   16.833029   12.154741   
459   459   3   -0.630000   -5.503350   17.823604   8.801235   
460   460   3   -0.630000   -0.405119   17.086800   8.801235   