4151
 Atoms. Timestep: 110674
3 -25.2632 28.2644 -24.7277
3 -24.6816 24.4798 -28.4813
4 -28.1246 27.1428 -21.9743
4 -28.1585 26.8106 -16.0633
4 -27.7377 21.3472 -22.0505
3 -28.5873 24.5153 -24.7777
3 -24.8629 28.203 -13.2639
3 -28.7669 24.4182 -19.2128
3 -25.6318 28.1246 -19.0995
3 -24.8293 24.8464 -15.8967
4 -26.6508 28.2274 -9.51529
4 -27.7016 27.1498 -3.17253
4 -27.5618 22.1047 -9.32431
3 -28.3589 24.9677 -12.0585
3 -25.2783 28.381 0.506966
3 -27.9221 25.5705 -6.63494
3 -24.4945 28.4739 -6.20034
3 -24.2941 25.0383 -3.11397
4 -27.9277 27.5346 3.36948
4 -27.5651 28.1559 9.75215
4 -27.9853 21.1894 2.96491
3 -28.6743 24.6765 0.388497
3 -24.5961 27.9423 12.6306
3 -28.57 25.5709 6.6045
3 -25.0747 28.6646 6.29616
3 -25.0673 24.8171 9.46993
4 -27.4648 27.8576 15.9331
4 -27.4236 27.9076 22.1186
4 -28.1523 21.5483 16.176
3 -28.4156 25.7265 12.9512
3 -24.4466 28.2421 24.823
3 -28.3748 25.1148 18.8053
3 -24.623 28.2368 18.9805
3 -24.9041 24.9182 22.1269
4 -28.1713 22.3228 27.9244
3 -28.5481 25.0041 25.1064
4 -21.8557 27.3696 -22.3383
4 -21.7823 27.8469 -9.40054
4 -21.8278 27.6003 3.52958
4 -21.4582 27.2583 15.6832
4 -21.6444 27.9618 27.6033
4 -28.0955 15.3633 -27.7306
4 -28.1376 21.6882 -27.6549
3 -25.2011 15.5177 -24.9834
3 -28.4161 18.6132 -25.2011
3 -25.1326 11.9821 -28.4674
4 -27.6702 15.6372 -21.7895
4 -27.1804 15.5463 -15.5904
4 -28.0978 9.35592 -22.2343
4 -27.9276 20.9142 -15.6066
3 -28.5117 12.013 -25.0903
3 -24.2734 15.433 -12.1656
3 -27.938 18.2398 -12.7399
3 -28.2482 12.2125 -19.4564
3 -24.4717 15.658 -18.8942
3 -28.3338 18.2169 -18.7293
3 -24.6764 18.8265 -21.9645
3 -24.9699 12.4202 -15.7637
4 -27.3556 15.8147 -9.37839
4 -27.3465 15.4799 -3.13512
4 -27.2883 9.17671 -9.59304
4 -27.8551 21.1468 -2.84759
3 -28.1015 12.9855 -12.1339
3 -24.4045 15.5077 -0.294525
3 -28.1585 18.2473 -0.0317178
3 -28.1446 13.2636 -6.38878
3 -24.6065 15.7059 -6.29278
3 -27.8836 18.1874 -6.0306
3 -24.8949 19.4025 -9.16907
3 -24.2514 12.5551 -3.20327
4 -27.6162 15.3383 3.22076
4 -27.4888 15.284 9.35444
4 -27.9607 9.61496 3.35704
4 -28.1806 21.2075 8.81458
3 -27.96 12.6858 0.266305
3 -24.7367 15.6311 12.7514
3 -28.6573 18.27 11.5202
3 -27.9751 12.5997 6.46106
3 -24.324 15.6399 6.2342
3 -28.0735 18.4201 5.86215
3 -24.7234 18.5287 3.12967
3 -24.6809 12.3909 9.65943
4 -27.125 15.363 15.7831
4 -28.0384 15.5009 22.0606
4 -27.7557 9.16323 15.5691
4 -27.8581 22.2625 22.1169
3 -28.5352 12.7215 13.3234
3 -24.6837 15.8566 25.5557
3 -28.5816 18.8161 25.7638
3 -28.3749 13.0821 18.9514
3 -24.271 15.3786 18.6492
3 -28.3372 18.2283 18.9727
3 -25.0312 18.7117 15.5394
3 -25.0272 12.6363 22.4017
4 -27.5228 15.385 28.255
4 -28.1873 9.02533 28.0227
3 -28.4696 12.7282 25.6699
3 -25.1551 19.4095 28.4699
4 -21.9774 21.4333 -27.8067
4 -22.446 27.6174 -27.6349
3 -19.0383 21.8852 -25.1444
3 -21.9316 24.7285 -25.2253
3 -19.241 19.0287 -28.876
3 -25.0143 18.6135 -28.4054
1 -21.8033 21.8999 -22.1197
1 -21.7078 21.9003 -15.2051
1 -21.9939 15.6986 -22.5356
4 -21.7791 27.6954 -16.1773
2 -25.2163 18.6382 -25.1181
2 -25.4047 24.889 -25.1653
2 -24.9731 18.7856 -18.7576
2 -25.2332 24.9229 -19.0362
3 -24.9821 21.8507 -25.1979
3 -21.8968 18.4397 -25.1415
3 -18.2165 22.0863 -12.5345
3 -21.9479 25.0123 -12.5172
3 -25.8749 21.691 -18.5825
3 -22.0195 19.7023 -18.864
3 -18.2009 21.7727 -19.1515
3 -22.0324 24.5356 -19.1398
3 -24.7932 24.5359 -22.0745
3 -18.6773 24.9387 -22.3036
3 -18.7577 19.0308 -16.0333
3 -24.6938 18.6637 -15.562
1 -21.2437 21.9747 -9.43517
1 -21.6409 21.8707 -3.05421
1 -21.2975 15.5868 -9.56217
4 -21.2307 27.7171 -3.62847
2 -24.8975 18.7712 -12.1928
2 -25.1326 24.9206 -12.5871
2 -24.8449 18.7782 -6.0694
2 -24.772 25.3043 -6.28285
3 -25.2244 21.8959 -12.8407
3 -21.6711 19.2157 -12.2744
3 -17.6925 21.8314 -0.0973137
3 -21.713 24.4288 0.244407
3 -25.0439 22.1082 -6.02925
3 -21.6464 19.4458 -6.31277
3 -18.1204 21.9053 -6.39387
3 -21.767 24.6393 -6.20141
3 -24.6385 24.8773 -9.25673
3 -18.9246 25.0901 -9.56814
3 -18.3306 19.1739 -3.05945
3 -24.5175 18.8019 -2.88403
1 -21.6189 21.9796 3.43115
1 -22.2333 21.9106 9.34194
1 -21.6363 15.1612 3.19958
4 -21.678 27.396 9.55624
2 -24.8381 18.4593 0.145541
2 -24.82 25.0379 0.150315
2 -25.0367 18.8094 6.34489
2 -24.8945 25.2184 6.45635
3 -25.1374 21.8629 0.29266
3 -21.6229 19.4573 0.115053
3 -18.2767 21.5584 12.8383
3 -21.8723 24.1218 12.8579
3 -25.3586 21.9787 6.18087
3 -21.8678 19.2761 6.40368
3 -18.3054 21.6289 5.97633
3 -21.7317 24.8845 6.40813
3 -24.7681 24.7504 3.20437
3 -18.7773 24.7712 3.14725
3 -18.2199 19.0654 9.40371
3 -24.9127 18.7772 9.49027
1 -21.8091 21.6129 15.7604
1 -21.979 21.7604 22.4394
1 -21.9627 15.543 15.5376
4 -21.6725 27.4834 21.5272
2 -25.7326 18.8544 12.432
2 -25.0854 24.822 12.5319
2 -24.9569 18.5936 18.7942
2 -25.1267 25.1403 18.9802
3 -26.151 21.9488 12.3811
3 -22.054 19.2521 12.6761
3 -19.1062 21.9118 25.4993
3 -21.9716 24.8141 25.1764
3 -25.3401 21.8478 18.7999
3 -21.9686 19.2396 19.2714
3 -18.045 21.9395 18.859
3 -21.747 24.6115 18.8015
3 -24.9725 24.7943 15.6509
3 -18.7014 24.5319 15.7124
3 -19.0295 18.8799 22.2934
3 -25.4608 18.7082 22.0792
4 -22.0797 22.1896 27.8445
4 -21.4369 16.1259 28.527
2 -25.382 18.8821 25.2829
2 -25.3105 25.2175 25.2093
3 -25.2443 22.0452 25.232
3 -22.1536 19.0826 25.2041
3 -24.9074 24.7178 28.6332
3 -18.7699 25.1746 28.5279
4 -15.8659 27.3558 -28.0941
3 -12.655 28.2271 -25.805
3 -13.0246 24.5452 -28.7691
3 -18.626 24.5818 -28.6971
4 -15.8792 27.3639 -22.2058
4 -15.1993 27.9237 -16.0919
1 -15.4734 21.6702 -22.4138
2 -18.6527 25.0667 -25.4783
2 -18.922 24.8628 -18.9
3 -18.6728 28.1766 -25.1756
3 -15.6699 24.5147 -25.3243
3 -12.3247 28.642 -12.7242
3 -18.777 28.1461 -18.9153
3 -15.7688 25.17 -18.7786
3 -11.9052 28.3187 -19.127
3 -12.3914 24.9471 -15.8706
3 -18.7923 24.6622 -15.8894
4 -15.9094 28.1784 -9.73736
4 -15.3705 27.8136 -3.42062
1 -15.6854 22.2392 -9.46125
2 -18.9002 25.2857 -12.7681
2 -18.5788 25.2877 -6.24267
3 -18.8278 28.4616 -13.6002
3 -15.6383 25.6281 -13.055
3 -11.4798 28.4237 -0.647693
3 -18.6189 28.3727 -6.45761
3 -15.5393 25.3074 -6.84699
3 -12.6239 28.3556 -6.32236
3 -12.3257 24.8681 -3.40587
3 -18.3329 24.8655 -3.07485
4 -15.8586 27.9154 3.79977
4 -16.1893 27.8345 9.39518
1 -15.3209 21.1863 3.07688
2 -18.5663 24.8274 -0.0381549
2 -18.7697 24.6897 6.22489
3 -19.526 27.9831 -0.03416
3 -15.5101 26.0738 -0.00782663
3 -12.5276 28.2565 12.746
3 -18.9415 28.3074 6.46299
3 -15.4613 25.2474 6.45075
3 -12.608 28.6133 6.34325
3 -12.4465 24.9683 9.11922
3 -18.8642 24.4219 9.39141
4 -15.8485 27.2472 15.5542
4 -15.8081 27.8057 22.0451
1 -15.523 21.4395 15.3332
2 -18.7632 24.7869 12.3565
2 -18.5756 25.0028 18.9154
3 -19.0678 27.8751 12.6088
3 -15.7443 24.8985 11.8824
3 -12.8372 28.1585 24.9833
3 -18.9768 27.9842 18.8104
3 -15.572 25.316 19.142
3 -12.2751 28.1958 18.4752
3 -12.4496 25.0278 22.0685
3 -18.9416 24.5567 21.9742
4 -16.0994 27.9678 27.2309
4 -15.7971 21.8488 27.7495
2 -18.7888 25.1011 24.9349
3 -18.9371 28.3369 24.2899
3 -15.8119 24.8379 24.8277
4 -9.29978 27.7518 -22.0299
4 -9.04559 27.3209 -9.60516
4 -9.48482 27.5214 2.60684
4 -9.41253 26.8818 15.4006
4 -9.77384 27.9571 27.7866
4 -27.3153 3.16192 -28.3483
4 -27.6708 9.12782 -27.9193
3 -24.7949 3.1661 -25.5229
3 -28.4105 6.21893 -25.3033
3 -24.6058 0.362301 -28.8476
4 -27.1953 3.20104 -21.5835
4 -26.9374 3.41702 -15.7303
4 -27.4446 -3.17785 -22.5232
4 -27.4346 9.39891 -15.975
3 -28.1607 0.126735 -25.4557
3 -23.8755 3.10423 -12.4474
3 -27.6688 6.07478 -12.5701
3 -28.0338 0.743622 -18.4854
3 -24.1169 3.18754 -19.178
3 -28.0901 6.1841 -19.109
3 -24.4291 6.26487 -22.151
3 -24.5162 0.582557 -15.7869
4 -27.1395 3.39156 -9.3186
4 -27.5217 3.30913 -3.26971
4 -27.6456 -2.46803 -9.83309
4 -27.5915 9.37507 -3.01226
3 -27.8025 0.748152 -12.6186
3 -24.4686 3.12996 0.268503
3 -28.1338 6.06144 0.196788
3 -27.9704 0.36723 -6.60548
3 -24.2252 3.11175 -6.28071
3 -28.1038 6.36307 -6.20972
3 -24.1637 6.42224 -9.4082
3 -24.7896 0.169377 -3.2623
4 -27.0684 2.78366 3.25853
4 -27.1151 2.7389 9.32979
4 -27.204 -3.02416 2.77524
4 -28.3534 9.04805 8.88288
3 -27.7761 -0.29636 -0.0188109
3 -24.5101 2.87882 12.6382
3 -28.1286 5.72534 12.0997
3 -28.1281 0.0764852 6.59802
3 -23.9582 2.89083 6.18
3 -27.9995 5.03105 6.33348
3 -24.7874 6.45938 3.14321
3 -24.6133 -0.302998 9.29526
4 -27.7833 2.84699 15.4697
4 -27.665 3.77056 21.358
4 -27.5031 -3.20753 15.822
4 -27.9102 9.82273 22.2737
3 -28.0901 0.0415693 12.5103
3 -25.6803 3.38982 24.9041
3 -28.5759 6.56032 25.1938
3 -28.3903 0.0504356 18.8776
3 -24.6673 3.16793 18.9985
3 -28.411 5.89751 18.2705
3 -24.8445 6.15116 15.6355
3 -25.241 0.234468 22.1053
4 -28.4883 3.11586 27.473
4 -28.1171 -3.30417 28.149
3 -28.5361 -0.11021 25.135
3 -25.7233 6.14521 28.5304
4 -21.8122 9.22284 -28.4619
4 -21.9745 15.8068 -28.0716
3 -18.91 9.24328 -25.2567
3 -21.9424 12.5295 -25.5367
3 -18.9057 6.69449 -28.7337
3 -24.9487 6.54158 -28.6333
1 -21.6711 9.45566 -21.9787
1 -21.4745 9.11 -16.0965
1 -21.7543 2.94862 -22.1723
1 -22.1626 15.4552 -15.5843
2 -24.8602 6.1909 -25.2849
2 -25.0213 12.3836 -25.085
2 -24.9351 6.17937 -18.9769
2 -25.0585 12.5571 -18.8512
3 -24.8984 9.28157 -25.0408
3 -21.7189 5.95523 -25.6173
3 -17.4443 9.37604 -12.6606
3 -21.7094 12.1546 -12.1432
3 -25.0981 9.31433 -19.3156
3 -21.5727 6.62147 -18.9685
3 -18.0899 9.33497 -19.7864
3 -21.7279 12.1031 -18.8088
3 -24.9749 12.3815 -21.9405
3 -18.7515 13.2833 -22.0028
3 -18.0874 6.36357 -15.9156
3 -24.7303 6.60781 -15.7667
1 -21.1155 9.36069 -9.54963
1 -21.8325 9.05936 -3.10703
1 -21.4548 3.29531 -9.36763
1 -21.8562 15.7334 -3.40346
2 -24.5378 6.09193 -12.5919
2 -24.8051 12.4751 -12.4759
2 -25.0304 6.30441 -6.10064
2 -24.7947 12.6116 -6.23972
3 -24.7853 9.42342 -12.5682
3 -21.3501 6.81256 -12.9652
3 -17.9113 9.43763 0.102176
3 -21.4897 11.9381 0.0359237
3 -24.9815 9.44828 -6.03993
3 -21.6616 6.44478 -6.15508
3 -18.0587 9.33747 -6.6364
3 -21.3856 12.3184 -6.97467
3 -24.8398 12.616 -9.36316
3 -17.8634 12.4826 -9.60563
3 -18.5426 6.56837 -3.20996
3 -24.4852 6.1134 -2.99694
1 -21.8453 9.37007 3.29466
1 -21.7051 9.19516 9.70823
1 -21.7208 3.35014 2.89301
1 -22.0986 15.6439 9.49
2 -24.9052 6.24269 0.109453
2 -24.6856 12.3647 -0.00438524
2 -24.6405 6.04473 6.12519
2 -24.9136 12.5192 6.27163
3 -24.6675 9.24459 -0.106727
3 -21.4778 6.62574 0.0508102
3 -18.2353 9.12157 12.9952
3 -21.8024 11.3678 12.9657
3 -25.3426 9.22555 6.28951
3 -21.559 6.68958 5.96686
3 -18.2424 9.52282 6.06892
3 -21.7715 11.9893 6.56149
3 -24.6139 12.3522 3.21269
3 -18.3478 13.1119 3.35852
3 -18.9377 6.40854 9.44164
3 -24.3142 5.84902 9.18738
1 -21.67 9.21532 16.0261
1 -21.5956 8.96792 22.3557
1 -21.9858 3.41779 15.8597
1 -21.8077 15.6813 22.3023
2 -24.8633 6.15269 12.4321
2 -25.1835 12.4282 12.7075
2 -25.1006 6.15762 18.7876
2 -25.1202 12.3749 19.0103
3 -25.6432 9.09557 12.2677
3 -21.8841 6.71083 12.6405
3 -18.9454 9.39092 25.5066
3 -21.9978 12.6439 25.9354
3 -25.707 9.27605 19.1182
3 -21.7669 6.55988 19.0548
3 -17.9317 9.36168 19.1936
3 -21.9608 11.47 19.2532
3 -25.0137 11.9633 15.7126
3 -18.6615 12.2327 16.1281
3 -18.4109 6.3837 22.4426
3 -24.7083 6.47047 22.112
4 -21.841 9.64303 28.5979
4 -21.9749 3.29534 28.1364
2 -25.3021 6.42312 25.4133
2 -25.1602 12.8359 25.648
3 -25.1375 9.59099 25.5289
3 -22.1242 6.50214 25.4668
3 -25.5163 12.2085 29.3467
3 -18.7263 12.7003 28.7862
4 -15.5655 15.1448 -27.9838
4 -15.655 21.6329 -27.9866
3 -12.6233 15.7183 -25.6441
3 -15.7837 18.7729 -25.5087
3 -12.5557 12.4167 -28.783
3 -19.006 12.3712 -28.3052
1 -15.7895 15.7263 -22.6399
1 -15.7787 15.9501 -16.2005
1 -15.171 9.15097 -22.2246
1 -15.5532 22.3669 -15.8949
2 -18.7449 12.4845 -25.094
2 -18.8188 18.7483 -25.7062
2 -18.6652 12.5471 -18.949
2 -18.8738 18.8247 -19.2598
3 -18.7172 15.4893 -25.2317
3 -15.5983 12.4613 -25.2931
3 -11.2608 15.9164 -12.5035
3 -15.515 17.7344 -12.7523
3 -19.5356 15.6361 -18.893
3 -15.3227 13.5953 -19.155
3 -11.8016 15.6614 -19.7737
3 -15.5954 18.2706 -19.3393
3 -18.6529 18.6767 -22.5209
3 -12.4257 18.9591 -22.5089
3 -11.3721 12.9366 -15.9709
3 -18.6486 12.211 -15.8043
1 -15.234 15.93 -9.26176
1 -15.2065 15.6725 -3.10992
1 -15.2376 9.12139 -9.50148
1 -15.3515 21.8633 -3.3364
2 -18.1421 12.4309 -12.8323
2 -18.602 18.7807 -12.6672
2 -18.3505 12.5126 -6.42192
2 -18.5048 18.7489 -6.27589
3 -19.2454 15.7136 -13.2645
3 -15.1538 13.4486 -13.1512
3 -11.9477 15.8148 -0.109018
3 -15.5243 18.0264 0.363449
3 -18.793 15.7232 -6.0899
3 -15.2625 13.0295 -6.23128
3 -11.6658 15.7455 -6.56041
3 -15.4118 18.493 -6.38974
3 -18.3265 18.5986 -9.42218
3 -12.7867 19.2157 -9.75851
3 -11.6461 12.8377 -3.23915
3 -17.9538 12.3394 -3.19667
1 -15.0231 15.423 3.27609
1 -15.7683 15.3609 9.51875
1 -15.3644 9.36207 2.98626
1 -15.4339 21.9693 8.76908
2 -18.3953 12.665 0.100403
2 -18.5658 18.788 0.127383
2 -18.6479 12.6232 6.50484
2 -18.8522 18.6054 6.38108
3 -19.451 15.6341 -0.331661
3 -15.1502 13.3048 0.0561348
3 -11.5404 15.4312 13.174
3 -15.6653 17.9931 12.8675
3 -19.113 15.6429 6.73326
3 -15.5988 12.7284 6.30584
3 -11.993 15.7681 6.03004
3 -15.5053 18.2715 5.97719
3 -18.6757 18.1289 3.20381
3 -12.162 18.7353 2.9996
3 -11.9335 13.3486 9.40699
3 -18.9093 12.4775 9.66104
1 -15.3118 15.4551 15.8779
1 -15.6028 15.4371 22.5104
1 -15.7603 9.06814 16.1191
1 -15.6739 21.5014 22.0067
2 -18.595 12.3011 12.9294
2 -18.7862 18.4733 12.5153
2 -18.9226 12.4733 19.2788
2 -18.7742 18.7476 19.116
3 -19.4484 15.3913 12.4113
3 -15.6186 13.3167 12.685
3 -12.819 15.9972 25.7881
3 -15.8814 18.9595 25.3523
3 -19.6749 15.5374 19.055
3 -15.5267 13.0651 19.2301
3 -11.96 15.7344 18.976
3 -15.6675 17.9439 18.9522
3 -19.2451 18.4264 15.6809
3 -12.3039 18.9747 15.8381
3 -12.3855 12.7337 22.4805
3 -18.8656 12.585 22.3929
4 -16.0599 15.8143 27.8499
4 -16.0477 9.81118 28.2106
2 -18.8757 12.544 25.634
2 -19.0232 18.6853 25.538
3 -18.9724 15.6764 25.3307
3 -15.7525 12.7069 25.3754
3 -18.9145 19.003 28.806
3 -11.7442 19.0899 28.6389
4 -9.44605 22.0697 -28.3169
4 -9.07516 28.2019 -27.3634
3 -6.21853 22.0373 -25.1965
3 -9.44252 24.9427 -25.1372
3 -6.07091 19.3011 -29.0018
3 -12.6416 18.0594 -29.0005
1 -9.58427 22.1114 -22.1302
1 -9.74762 22.124 -15.9453
1 -9.29387 15.8134 -22.8713
4 -9.24466 27.9193 -15.8759
2 -12.5596 18.7418 -25.7089
2 -12.56 24.8698 -25.54
2 -12.4484 18.6915 -19.4082
2 -12.738 24.9645 -19.1502
3 -12.4662 21.8525 -25.6873
3 -9.4155 19.0622 -25.9665
3 -5.45221 21.829 -12.8254
3 -9.38456 24.7218 -12.6071
3 -12.9491 21.8548 -19.2034
3 -9.48382 19.3517 -18.7483
3 -5.87161 21.808 -18.8016
3 -9.62498 24.6659 -18.9842
3 -12.6189 24.8625 -22.3724
3 -6.58972 24.8918 -21.8487
3 -5.283 18.0946 -15.9095
3 -12.4859 18.7136 -15.9478
1 -9.27101 21.9387 -9.55092
1 -8.88892 21.6629 -3.45442
1 -9.08722 15.1085 -9.55053
4 -9.17737 27.6151 -4.06967
2 -12.4552 18.8639 -12.7713
2 -12.5569 25.1545 -12.7838
2 -12.4414 18.8644 -6.46257
2 -12.386 25.0882 -6.52599
3 -12.8651 22.1248 -12.9594
3 -9.39033 19.7516 -13.0807
3 -5.96752 21.5168 -0.0678162
3 -9.44453 24.3298 -0.310092
3 -12.7564 21.9422 -6.61945
3 -9.41023 19.2109 -6.36634
3 -5.66098 21.7618 -6.53072
3 -9.27262 24.2403 -6.34483
3 -12.5223 25.1078 -9.70125
3 -5.95766 24.7211 -9.40742
3 -5.77501 19.0035 -3.54388
3 -12.7099 18.7514 -3.30182
1 -9.36868 21.9374 3.00738
1 -9.64977 22.1183 9.34287
1 -9.1968 15.7196 3.14119
4 -9.48738 27.5749 9.76292
2 -12.5638 18.8181 -0.138034
2 -12.383 25.3377 -0.182958
2 -12.502 18.9236 6.28875
2 -12.4509 25.1697 5.94521
3 -13.1055 22.0559 -0.0743298
3 -9.32387 19.3184 -0.661628
3 -5.8979 21.7652 12.1947
3 -9.57263 24.326 12.5886
3 -12.8558 21.9969 6.03706
3 -9.35152 19.7513 6.42809
3 -5.73986 21.7135 5.90051
3 -9.42565 24.51 6.25238
3 -12.6439 24.9576 2.91512
3 -6.09849 25.0615 2.89421
3 -5.91005 18.6055 9.23234
3 -12.9016 18.1033 9.20981
1 -9.45255 21.6656 15.5547
1 -8.87719 22.1116 22.2609
1 -8.99047 15.5965 16.1368
4 -9.32194 27.7724 21.9341
2 -12.5242 18.3987 12.3836
2 -12.6894 24.8487 12.3296
2 -12.5636 18.8236 18.9332
2 -12.4987 25.0361 18.8999
3 -13.078 21.5841 12.1149
3 -9.5211 19.1456 12.1943
3 -5.90409 22.1267 25.2544
3 -9.36762 24.8785 25.1099
3 -13.1908 21.9568 19.0198
3 -9.53413 19.5413 19.2376
3 -5.78456 21.9219 19.2874
3 -9.5782 24.4342 19.0455
3 -12.9744 24.6643 15.5207
3 -6.71338 24.3446 15.7509
3 -6.19849 19.0029 22.1445
3 -12.8853 18.3446 22.2424
4 -8.99232 22.173 27.8859
4 -8.9181 16.2714 28.346
2 -12.6689 19.0895 25.3769
2 -12.5731 25.0734 25.1349
3 -12.5708 22.0616 25.4971
3 -9.33325 19.0308 24.8902
3 -12.3939 25.2939 28.3789
3 -6.30844 25.6426 28.5889
4 -3.06674 27.8197 -27.7037
3 -0.105151 28.4507 -25.1104
3 0.1035 25.5953 -28.279
3 -6.34442 25.2425 -28.553
4 -3.36718 27.5086 -21.4437
4 -3.24018 27.6471 -15.5481
1 -3.50326 21.6831 -22.2538
2 -6.30823 25.2006 -25.2379
2 -6.47155 24.867 -18.7246
3 -6.12362 28.4347 -24.9792
3 -3.16266 25.05 -25.0125
3 0.0499995 28.0536 -13.0818
3 -6.48639 28.3187 -18.9363
3 -3.09749 25.0172 -18.4149
3 0.00253523 28.3366 -18.6633
3 0.555375 24.5477 -15.8728
3 -6.33053 25.0595 -15.6352
4 -2.9926 27.801 -9.35431
4 -3.19156 27.735 -3.05666
1 -3.00879 21.7965 -9.54119
2 -6.11449 25.0943 -12.5595
2 -6.14345 24.8988 -6.33442
3 -6.24442 28.21 -12.3899
3 -2.95979 25.022 -12.692
3 -0.020646 28.2589 0.293411
3 -6.2648 28.136 -6.44247
3 -2.89258 25.2864 -6.22366
3 0.569953 28.2016 -5.98383
3 0.0966025 24.5335 -3.20254
3 -5.69414 24.3978 -3.20319
4 -2.80809 27.392 3.23457
4 -3.98998 27.7674 9.2752
1 -3.13363 21.5025 3.13348
2 -6.18308 24.6043 -0.245214
2 -6.41937 25.0471 6.06531
3 -6.49388 27.7952 -0.722426
3 -2.95675 24.9941 -0.0750359
3 0.322821 28.1325 13.3138
3 -7.02689 27.8343 6.62447
3 -3.17027 25.0682 6.42619
3 0.0819079 27.9539 5.75354
3 -0.243301 24.7236 9.37483
3 -6.6853 24.5476 9.12687
4 -3.09404 28.7116 15.9643
4 -3.04548 27.5069 21.7479
1 -3.52941 22.1775 15.5526
2 -6.40654 24.7788 12.4816
2 -6.40437 24.8315 18.9225
3 -6.5093 28.1283 12.5807
3 -3.36196 25.0999 12.9659
3 0.0466715 28.3742 25.6807
3 -6.7051 28.0101 18.4301
3 -3.23116 25.4995 18.4888
3 0.618417 28.4864 19.0933
3 0.143792 25.0532 21.9104
3 -6.24008 25.048 22.1795
4 -3.18138 28.0365 27.7273
4 -3.00281 22.074 27.9095
2 -5.95723 25.1876 25.3631
3 -6.29083 28.2397 24.8709
3 -2.95512 25.242 24.8094
4 2.69467 28.273 -21.748
4 3.21236 27.3838 -9.7534
4 2.84073 27.5064 3.30283
4 3.19022 27.1237 16.0028
4 2.82379 27.3069 28.3785
4 -28.3215 -9.22537 -27.645
4 -27.7105 -2.90902 -28.1038
3 -25.0602 -9.10304 -25.5133
3 -28.2974 -5.94233 -25.3768
3 -25.8183 -12.0263 -28.7198
4 -27.5315 -9.1559 -22.3093
4 -28.0039 -9.14756 -15.5405
4 -28.254 -15.115 -21.7366
4 -27.9075 -2.52334 -15.9411
3 -28.6661 -12.1298 -24.8746
3 -24.2684 -9.12801 -12.6485
3 -28.4582 -6.6738 -11.8659
3 -28.3378 -11.6383 -19.0858
3 -24.7765 -9.08214 -19.3502
3 -28.3535 -6.33743 -19.3221
3 -25.031 -6.08249 -22.2447
3 -25.5707 -12.2947 -15.7145
4 -27.3392 -9.08192 -8.89762
4 -27.7065 -8.88365 -2.86054
4 -27.6717 -15.3236 -9.09169
4 -27.617 -2.98443 -3.0841
3 -28.4296 -11.3767 -11.9428
3 -24.7254 -9.45517 0.0830213
3 -28.3038 -6.51075 0.370743
3 -28.0555 -12.2324 -6.5692
3 -24.3876 -9.16334 -6.27283
3 -28.1145 -6.14755 -5.66859
3 -25.0041 -5.91217 -9.41406
3 -25.2163 -11.9082 -3.04281
4 -27.5484 -9.24528 3.41073
4 -27.6167 -9.29667 9.68824
4 -27.6409 -15.5041 2.89294
4 -27.4022 -3.29046 8.97902
3 -28.6245 -12.2376 0.350619
3 -24.4022 -9.46643 12.5772
3 -28.0526 -6.50151 12.7404
3 -28.2801 -12.1 6.53497
3 -24.3774 -9.41375 6.24541
3 -27.9963 -6.46361 6.54174
3 -24.8153 -6.3523 3.07469
3 -24.8575 -12.7379 9.51975
4 -27.2384 -9.44523 15.6812
4 -27.5686 -9.45286 21.6529
4 -27.8069 -15.5223 15.8313
4 -27.9483 -2.83601 22.1936
3 -28.0584 -12.3566 13.1798
3 -25.099 -9.40566 24.8482
3 -28.6117 -6.22089 25.0796
3 -28.3419 -12.0347 18.6483
3 -24.4287 -9.23284 19.1421
3 -28.6442 -6.01344 19.6829
3 -24.8396 -6.29389 15.8237
3 -25.1252 -12.6684 22.1111
4 -27.9296 -9.59402 27.4519
4 -27.8614 -15.5772 27.9964
3 -28.3763 -13.2825 25.0622
3 -25.5041 -6.40981 28.421
4 -21.2458 -2.7402 -27.9126
4 -21.7584 2.83337 -27.9733
3 -18.9363 -3.09521 -24.8571
3 -21.6399 0.0992785 -24.9689
3 -18.9854 -6.01796 -28.4405
3 -25.544 -6.15903 -28.8884
1 -21.9787 -2.92273 -22.1692
1 -21.4545 -2.90066 -15.892
1 -22.0694 -9.38771 -22.717
1 -21.3285 3.26482 -15.9173
2 -25.0558 -6.04523 -25.7683
2 -24.9364 0.107939 -25.6385
2 -25.1533 -5.9746 -19.0178
2 -24.813 0.220775 -18.8643
3 -24.9558 -3.02611 -25.4698
3 -21.9938 -6.01779 -25.2411
3 -18.1116 -3.07228 -12.5339
3 -21.6424 -0.670261 -12.8096
3 -25.0035 -2.83612 -18.8159
3 -21.9323 -5.94227 -18.7323
3 -18.6483 -3.16627 -19.1903
3 -21.72 -0.193563 -18.8997
3 -25.0139 0.0365291 -22.1917
3 -18.4877 -0.00687568 -22.2749
3 -18.4935 -6.01323 -15.8853
3 -25.2226 -6.35812 -15.904
1 -21.5012 -3.55674 -9.5846
1 -21.4354 -2.7956 -3.16872
1 -21.7467 -9.35205 -9.39465
1 -21.6823 3.28865 -3.34555
2 -25.0929 -6.0651 -12.7942
2 -24.665 0.00887445 -12.6485
2 -25.0297 -6.13515 -6.26025
2 -24.8571 -0.0884392 -6.44252
3 -25.3262 -2.89725 -13.049
3 -21.8435 -5.57211 -13.232
3 -17.9964 -3.1916 0.243041
3 -21.4423 0.0896156 -0.294656
3 -24.8014 -3.09183 -6.06715
3 -21.8459 -6.17438 -6.39866
3 -18.5549 -3.10774 -6.5587
3 -21.6364 -0.124457 -6.18823
3 -24.3187 -0.248483 -9.40972
3 -18.5293 0.185811 -9.4503
3 -18.4858 -6.15462 -3.17731
3 -24.7446 -5.9401 -3.16047
1 -21.4133 -3.12819 2.77834
1 -21.5632 -3.41276 9.55396
1 -21.6023 -9.56503 3.21342
1 -21.8152 2.55258 9.51743
2 -24.6183 -6.2153 -0.162541
2 -24.5748 0.106715 -0.0869048
2 -24.6101 -6.41477 6.20266
2 -24.7415 -0.258417 6.15283
3 -24.7989 -3.18907 -0.0575313
3 -21.5854 -6.11675 -0.347643
3 -18.1916 -3.13664 12.9037
3 -21.4956 -0.475623 12.3166
3 -24.7026 -3.32125 5.94896
3 -21.6295 -5.79222 6.44839
3 -17.8261 -3.31844 6.51451
3 -21.3974 -0.86594 6.53731
3 -24.4424 -0.119832 2.97995
3 -18.9566 0.33622 3.09863
3 -18.9088 -6.0308 9.4898
3 -24.7668 -6.43882 9.35758
1 -21.6552 -2.92768 15.6348
1 -22.2541 -2.73972 22.2329
1 -21.7843 -9.41266 15.6369
1 -22.1081 3.35845 22.2621
2 -24.7267 -6.52502 12.5455
2 -24.9764 -0.275927 12.651
2 -25.0626 -6.24566 19.0875
2 -25.2503 0.156901 19.0575
3 -25.1048 -3.38488 12.5827
3 -21.7751 -6.2582 12.6507
3 -19.0885 -2.97579 25.3824
3 -22.0609 0.250896 25.2477
3 -25.2594 -2.94807 19.1781
3 -21.8676 -5.27855 19.0047
3 -18.0175 -3.07968 19.4927
3 -21.9234 -0.484519 19.0856
3 -24.8724 0.198432 15.7511
3 -18.6494 0.359172 15.8848
3 -19.2296 -6.8405 22.2563
3 -24.9035 -5.88927 22.217
4 -22.0109 -2.78053 28.1335
4 -22.2461 -9.46284 27.8094
2 -25.5272 -6.30038 25.1823
2 -25.349 0.345738 25.3149
3 -25.3022 -2.88152 25.3781
3 -22.1833 -6.07121 25.5867
3 -25.2205 1.09877 28.5362
3 -19.0582 0.236437 28.5657
4 -15.3341 2.76766 -28.1723
4 -15.9757 9.51282 -28.0068
3 -12.2847 2.81342 -25.2335
3 -15.4767 6.09262 -25.379
3 -11.9438 0.0299183 -28.5183
3 -18.4907 0.0927665 -28.5947
1 -15.5108 2.74095 -22.5764
1 -15.8883 3.14475 -15.9534
1 -15.575 -3.11732 -22.3306
1 -15.4635 9.74514 -15.8546
2 -18.6308 0.00425933 -25.2989
2 -18.6596 6.12412 -25.8207
2 -18.4917 -0.161478 -18.9134
2 -18.3525 6.13885 -19.3124
3 -18.4564 2.99096 -25.3651
3 -15.5277 0.034777 -25.3302
3 -11.4059 3.25759 -12.9091
3 -15.2615 5.50331 -12.5465
3 -18.8681 2.98307 -18.9759
3 -15.512 0.0808481 -18.8037
3 -11.5121 2.84593 -19.7232
3 -15.2771 5.34131 -19.4393
3 -18.7519 5.86028 -22.3522
3 -12.4652 6.40305 -22.4229
3 -11.6517 0.395506 -16.1292
3 -18.5451 0.205214 -15.8036
1 -15.479 3.3301 -9.4507
1 -15.3246 3.28899 -2.98104
1 -15.6827 -2.57057 -9.1
1 -15.5231 9.15724 -3.31508
2 -18.6434 0.11999 -12.5156
2 -18.2794 6.34026 -12.6116
2 -18.4984 -0.0273688 -6.40006
2 -18.5046 6.25524 -6.52361
3 -19.1069 3.07662 -12.7469
3 -15.546 0.624379 -12.6504
3 -12.0372 3.19855 0.086098
3 -15.4587 5.97617 0.20043
3 -18.86 3.27733 -6.23353
3 -15.2979 0.614196 -6.34047
3 -11.884 3.31565 -6.7396
3 -15.4348 5.88434 -6.4152
3 -18.4838 6.21031 -9.65168
3 -12.4629 6.41195 -9.62404
3 -12.3118 0.46092 -3.21216
3 -17.88 -0.420643 -3.20309
1 -15.1115 3.51989 3.31354
1 -16.062 3.08209 9.96464
1 -15.431 -3.13564 3.17518
1 -15.8721 8.96882 9.56072
2 -18.4346 -0.118642 0.0650669
2 -18.4189 6.26728 -0.113127
2 -18.3343 -0.136633 6.22936
2 -18.5519 6.28679 6.25954
3 -18.7527 3.23265 -0.92672
3 -15.5275 0.535284 0.411481
3 -11.849 3.1957 13.121
3 -15.6492 5.76957 12.711
3 -19.316 3.06616 6.86437
3 -15.41 0.778871 5.91371
3 -11.6654 3.24301 6.2407
3 -15.5089 5.68868 6.61711
3 -18.56 5.73018 3.10532
3 -12.4703 6.57471 3.3064
3 -12.2081 0.0229977 9.64403
3 -18.4106 -0.0638334 9.62068
1 -15.2852 3.32675 16.0035
1 -16.027 2.88296 22.2558
1 -15.5966 -2.94638 16.2579
1 -15.5032 9.53256 22.3839
2 -18.4145 -0.0323432 12.7381
2 -18.842 6.20707 12.6016
2 -18.9638 0.00140886 19.1475
2 -18.3922 6.20808 19.2758
3 -19.3969 3.10031 12.708
3 -15.4191 0.655868 13.1962
3 -12.6973 2.96505 25.5498
3 -15.7092 6.53068 25.8762
3 -19.1322 3.21301 19.3196
3 -15.4616 0.32148 18.913
3 -11.9852 3.05662 19.5112
3 -15.4566 5.72648 18.8104
3 -18.4719 6.18394 16.05
3 -11.9069 6.30598 16.0189
3 -12.8024 -0.252659 22.5307
3 -18.7198 0.213594 22.3229
4 -16.1102 3.01127 28.0236
4 -15.6195 -3.31707 28.3028
2 -18.8433 0.112723 25.5403
2 -18.8363 6.2904 25.6208
3 -18.9832 3.25677 25.3832
3 -15.7964 -0.307965 25.4851
3 -19.0579 6.57061 28.8296
3 -12.3891 6.09643 28.5421
4 -9.77373 9.51435 -28.5182
4 -9.67034 15.4265 -28.3489
3 -6.38146 9.50226 -25.7874
3 -9.27947 12.6583 -25.4686
3 -6.84815 6.11105 -28.9123
3 -12.3254 5.89681 -29.1777
1 -9.62734 9.19761 -22.7484
1 -9.16158 9.52937 -16.2115
1 -8.9994 3.01403 -22.7711
1 -9.23083 16.1746 -15.9976
2 -12.417 6.14144 -25.6402
2 -12.2529 12.5893 -25.5692
2 -12.1611 5.87399 -19.278
2 -12.2955 12.7083 -19.1938
3 -12.5845 9.29891 -25.6465
3 -9.34997 6.23534 -25.4004
3 -5.54786 9.20147 -12.9478
3 -9.13346 11.7983 -12.3148
3 -12.8435 9.40307 -18.9414
3 -9.2269 6.74647 -19.2506
3 -5.2253 9.51799 -19.2993
3 -9.12958 11.4448 -19.6342
3 -12.571 12.1711 -22.3134
3 -5.87834 12.423 -22.311
3 -5.93048 6.58613 -16.1182
3 -12.7585 5.48424 -16.0583
1 -8.6457 8.94068 -9.61788
1 -9.70818 9.51423 -3.08947
1 -9.22105 2.58015 -9.871
1 -9.26377 16.2523 -3.44608
2 -12.1284 6.38434 -12.8649
2 -12.1342 12.7962 -12.7135
2 -12.3307 6.44787 -6.37388
2 -12.0784 12.4734 -6.33052
3 -12.9894 9.55009 -12.8597
3 -9.13928 7.08526 -13.2841
3 -5.5628 9.17219 -0.145921
3 -9.1608 11.8002 0.537432
3 -12.9501 9.50162 -6.17659
3 -9.14692 6.97663 -6.1396
3 -5.51155 9.05595 -6.7119
3 -9.06593 11.704 -7.017
3 -12.3456 12.5451 -9.51166
3 -5.82509 12.4163 -9.69632
3 -5.68726 5.99064 -3.17995
3 -12.4231 6.37566 -3.21507
1 -9.65211 9.15857 3.29488
1 -9.45933 9.80169 9.46259
1 -9.11113 3.2315 3.22487
1 -9.36262 16.401 9.44559
2 -12.33 6.30338 0.0406737
2 -12.1285 12.6398 -0.0669635
2 -12.399 6.27249 6.65747
2 -12.4485 12.5496 6.32082
3 -12.8924 9.66337 -0.386449
3 -9.17837 6.55846 -0.489042
3 -5.68068 9.69359 12.851
3 -9.29259 11.6525 13.2934
3 -13.1812 9.42358 6.98546
3 -9.51971 7.13925 6.78836
3 -5.52558 9.23231 6.46351
3 -9.36965 11.7012 5.98542
3 -12.7222 12.156 3.31229
3 -5.39858 12.3833 3.24995
3 -5.77869 6.38226 9.66473
3 -12.7143 5.71604 9.81709
1 -9.3258 9.04883 16.0473
1 -9.61469 9.75706 22.3821
1 -9.4174 2.88993 16.1246
1 -9.3443 15.7041 22.5552
2 -12.4231 6.23986 12.9486
2 -12.4656 12.4461 12.7545
2 -12.493 6.13826 19.0147
2 -12.5691 12.5585 19.0085
3 -13.4333 9.46421 12.3684
3 -9.39442 6.96004 12.2399
3 -6.75536 9.42783 25.5231
3 -9.50277 13.0781 25.8023
3 -12.9957 9.375 19.3479
3 -9.5019 6.96491 19.5363
3 -5.83755 9.52626 18.8869
3 -9.4671 12.1036 18.8618
3 -12.9882 12.2045 15.8036
3 -5.85468 12.7099 15.7961
3 -6.07186 6.58837 22.5821
3 -12.8767 6.32625 22.3701
4 -9.83336 9.42447 28.0846
4 -9.54919 3.20329 28.2805
2 -12.6694 6.26456 25.3932
2 -12.6601 12.8498 25.6648
3 -12.6984 9.46475 25.1021
3 -9.57603 6.27473 25.3405
3 -12.6428 12.0618 28.8256
3 -6.25864 13.3995 28.9929
4 -3.38155 16.1049 -28.2064
4 -3.10582 21.9545 -27.935
3 -0.212749 15.6845 -25.3557
3 -3.34733 18.9146 -25.3955
3 0.184755 13.1855 -29.1109
3 -6.56506 12.4441 -28.8217
1 -3.10066 15.4019 -22.6311
1 -2.34102 15.3859 -15.4896
1 -3.13368 9.62125 -22.3544
1 -2.74938 22.0097 -15.7297
2 -6.20542 12.5263 -25.6076
2 -6.43927 18.7895 -25.6404
2 -6.16715 12.5846 -19.0983
2 -6.33463 18.573 -18.8692
3 -6.18293 15.6535 -25.4817
3 -3.10423 12.2884 -25.5569
3 0.51708 15.4318 -12.6426
3 -2.98659 18.2028 -12.1372
3 -7.40891 15.532 -19.4798
3 -3.07964 13.545 -19.0165
3 0.912087 15.529 -19.0585
3 -3.07921 17.9269 -19.8579
3 -6.5671 18.9791 -22.2497
3 0.272308 18.6767 -22.3408
3 0.313501 12.272 -16.0002
3 -6.42933 12.63 -15.9702
1 -2.95755 15.2663 -9.7524
1 -3.30102 15.8399 -3.37152
1 -3.04579 9.39799 -9.92288
1 -2.9719 21.8457 -3.15172
2 -5.9373 12.4241 -12.7533
2 -6.23379 18.7317 -12.8729
2 -5.97132 12.2999 -6.29204
2 -6.33675 18.6905 -6.5474
3 -6.49054 15.52 -12.773
3 -2.7789 12.5568 -12.9653
3 0.277173 15.4582 0.346691
3 -3.15815 17.8914 0.0150475
3 -6.5299 15.5865 -6.09273
3 -2.98323 13.0559 -5.93469
3 0.470533 15.5306 -5.74192
3 -3.08261 18.1292 -6.9593
3 -6.75823 18.758 -9.82777
3 0.385079 18.3138 -9.48723
3 0.181387 12.1735 -2.9873
3 -6.70705 12.1512 -3.19297
1 -2.62036 15.2527 3.14888
1 -3.14365 15.7737 9.54612
1 -3.0937 8.8017 3.28751
1 -3.0782 21.8224 9.39461
2 -6.07841 12.2767 -0.0885848
2 -6.18183 18.3227 -0.318129
2 -6.14188 12.3545 6.39328
2 -6.20781 18.5665 5.95086
3 -7.04338 15.4193 -0.485782
3 -3.08906 13.3242 -0.310189
3 0.0351282 15.5588 12.5312
3 -3.32801 18.342 12.2202
3 -6.77043 15.5031 6.37148
3 -3.1184 13.2202 6.75429
3 0.706461 15.2659 6.23866
3 -3.01128 18.1257 5.64023
3 -6.78327 18.5316 2.83732
3 0.157486 18.3479 3.10121
3 -0.350688 12.1368 9.66565
3 -6.48891 12.3682 9.53624
1 -2.86643 15.4743 15.4443
1 -2.9028 15.3165 21.9518
1 -3.22698 9.5403 15.9946
1 -3.02716 22.0641 22.149
2 -6.39487 12.6503 12.7248
2 -6.45074 18.7308 12.4359
2 -6.13601 12.6295 19.0384
2 -6.36558 18.7933 18.8553
3 -7.16287 15.7141 12.5158
3 -3.20079 12.679 12.55
3 -0.0997577 15.6164 25.2405
3 -3.06138 19.2463 25.2369
3 -6.92679 15.7237 19.4536
3 -3.18437 13.2142 18.8572
3 0.630564 15.7015 19.1431
3 -3.28432 17.8241 18.7025
3 -6.32427 19.086 15.8923
3 0.0293548 18.6145 15.5249
3 0.200445 12.521 22.3021
3 -6.86614 12.3128 22.3848
4 -3.17242 16.1121 28.1178
4 -3.92543 9.43174 28.0505