4151
 Atoms. Timestep: 674
3 -24.5194 28.2412 -24.745
3 -24.5991 24.6556 -28.4371
4 -27.4317 27.6148 -21.9997
4 -27.2799 27.7063 -15.7986
4 -27.5835 21.6567 -22.0687
3 -28.2179 24.6519 -24.8056
3 -24.5869 28.1629 -12.7028
3 -28.1702 25.1683 -18.8742
3 -24.6277 28.0886 -18.8907
3 -24.8058 24.6711 -15.7735
4 -27.2154 27.9592 -9.53616
4 -27.2919 27.9396 -3.22178
4 -27.8572 21.6466 -9.52759
3 -28.2304 25.4571 -12.5723
3 -24.642 28.2756 -0.0739244
3 -28.2792 25.612 -6.41181
3 -24.6149 28.2381 -6.35834
3 -24.9669 24.7948 -3.20362
4 -27.2533 28.052 3.10768
4 -27.2741 27.8925 9.43356
4 -27.9452 21.6957 3.07573
3 -28.3094 25.6598 -0.003784
3 -24.6327 28.1975 12.5864
3 -28.3036 25.6596 6.21119
3 -24.626 28.2473 6.29557
3 -24.9418 24.7436 9.40834
4 -27.3333 27.8508 15.7282
4 -27.489 27.5762 21.9777
4 -27.7906 21.6952 15.8399
3 -28.2748 25.519 12.5861
3 -24.5115 28.1949 24.6949
3 -28.2286 25.182 18.7475
3 -24.7227 28.1817 18.8517
3 -24.8092 24.7417 21.9371
4 -27.4749 21.8013 27.6896
3 -28.1643 24.5672 24.7509
4 -21.738 27.3704 -21.8329
4 -21.8838 27.408 -9.50896
4 -21.9532 27.4634 3.10536
4 -21.845 27.4037 15.6837
4 -21.7404 27.5126 27.6418
4 -27.6195 15.6708 -27.7311
4 -27.5759 21.9043 -27.7938
3 -24.8001 15.6647 -25.0342
3 -28.1986 18.7786 -25.1214
3 -24.9509 12.6274 -28.4295
4 -27.3017 15.6344 -21.8
4 -27.2252 15.6136 -15.7506
4 -27.5066 9.551 -22.092
4 -27.6644 21.3742 -15.8309
3 -28.1579 12.5156 -25.1187
3 -24.3472 15.7336 -12.6814
3 -28.1409 18.4084 -12.7726
3 -27.9933 12.9403 -18.9249
3 -24.2049 15.6174 -18.9254
3 -28.0084 18.3529 -18.8042
3 -24.7693 18.7342 -22.0417
3 -24.7222 12.4892 -15.7499
4 -27.4223 15.7645 -9.51132
4 -27.4007 15.7665 -3.19916
4 -27.7141 9.99502 -9.44469
4 -27.8148 21.4845 -3.20729
3 -28.0448 13.0495 -12.4974
3 -24.4573 15.8288 -0.140293
3 -28.2562 18.5276 -0.127067
3 -28.1184 13.1041 -6.53764
3 -24.4237 15.7964 -6.23662
3 -28.2236 18.4856 -6.30398
3 -24.9184 18.8507 -9.48852
3 -25.009 12.5788 -3.178
4 -27.4919 15.8291 3.10549
4 -27.3593 15.7401 9.38812
4 -27.7788 10.0913 3.1023
4 -27.7965 21.4396 9.43323
3 -28.143 13.1488 0.146916
3 -24.3843 15.7697 12.4591
3 -28.1803 18.4156 12.4691
3 -28.1197 13.1489 6.08001
3 -24.4139 15.8224 6.34977
3 -28.2324 18.4723 6.36221
3 -25.0075 18.918 3.10247
3 -24.967 12.5628 9.38197
4 -27.3927 15.735 15.6186
4 -27.3814 15.6866 21.6851
4 -27.6982 9.88515 15.6111
4 -27.5274 21.6081 21.9729
3 -28.0919 13.0185 12.7151
3 -24.7692 15.5783 24.8438
3 -28.1315 18.6833 24.9621
3 -28.0817 13.0205 18.5836
3 -24.3678 15.688 18.8899
3 -28.1443 18.5704 18.8576
3 -24.8976 18.8173 15.6767
3 -24.9741 12.4594 21.9094
4 -27.5382 15.5438 27.5999
4 -27.3925 9.30802 27.7321
3 -28.1495 12.3459 25.1326
3 -24.9443 18.6095 28.3122
4 -21.7459 21.748 -27.8113
4 -21.8322 27.5998 -27.744
3 -18.7245 21.8422 -25.165
3 -21.8352 24.8032 -25.0185
3 -18.7774 18.7334 -28.4848
3 -24.9391 18.7353 -28.4181
1 -21.7357 21.8038 -22.1573
1 -21.6455 21.7725 -15.7577
1 -21.7575 15.6532 -22.2328
4 -21.7214 27.3254 -15.7698
2 -25.0007 18.7653 -25.202
2 -25.0402 25.0733 -25.2339
2 -24.8023 18.6902 -18.8936
2 -24.9444 24.8953 -18.8925
3 -24.7984 21.8565 -25.0661
3 -21.8448 18.7349 -25.125
3 -18.2478 21.8689 -12.7284
3 -21.8998 24.4835 -12.6578
3 -25.25 21.7845 -18.9156
3 -21.7244 19.4058 -19.0292
3 -18.0686 21.7581 -18.9132
3 -21.7868 24.4166 -18.9009
3 -24.7948 24.7292 -22.0194
3 -18.6879 24.7469 -22.0463
3 -18.9142 18.6571 -15.7737
3 -24.5454 18.7248 -15.7728
1 -21.9294 21.9595 -9.47551
1 -21.7342 21.8784 -3.18322
1 -22.0036 16.0281 -9.44735
4 -21.8704 27.4851 -3.20602
2 -24.9665 18.7911 -12.6487
2 -25.0461 24.9799 -12.6459
2 -25.0438 18.8546 -6.32312
2 -25.1121 25.051 -6.34639
3 -25.4136 21.874 -12.6199
3 -21.8606 19.4081 -12.4829
3 -18.3821 21.962 -0.24963
3 -22.005 24.5898 -0.0954308
3 -25.4956 21.9441 -6.37656
3 -21.937 19.4519 -6.46785
3 -18.361 21.9331 -6.12391
3 -21.9702 24.553 -6.29907
3 -24.9116 24.7932 -9.49857
3 -18.9132 24.7327 -9.47525
3 -19.183 18.6752 -3.16934
3 -24.7095 18.9063 -3.19206
1 -22.0349 22.033 3.08023
1 -21.6898 21.8582 9.39158
1 -22.0874 16.1443 3.09249
4 -21.8602 27.4448 9.41343
2 -25.0762 18.8875 -0.065647
2 -25.1466 25.0904 -0.0602028
2 -25.0555 18.8801 6.27007
2 -25.141 25.0632 6.26479
3 -25.5125 21.98 -0.0195488
3 -21.9661 19.4702 0.118315
3 -18.2942 21.8973 12.3422
3 -21.9457 24.5065 12.5156
3 -25.5588 21.9624 6.20964
3 -21.9527 19.5047 6.0765
3 -18.3395 21.9438 6.45679
3 -21.999 24.5437 6.2945
3 -24.9881 24.8631 3.10225
3 -19.0033 24.7691 3.10187
3 -19.1656 18.6472 9.38529
3 -24.656 18.8924 9.39676
1 -21.9273 21.9296 15.7357
1 -21.7037 21.7617 21.9054
1 -21.966 15.9975 15.6912
4 -21.7516 27.4707 21.7247
2 -25.0013 18.8323 12.5159
2 -25.0917 25.0104 12.5406
2 -24.9506 18.7553 18.8114
2 -25.0225 24.9953 18.8214
3 -25.4997 21.91 12.62
3 -21.8961 19.4522 12.7028
3 -18.6658 21.802 24.816
3 -21.7661 24.782 24.8499
3 -25.1698 21.8641 18.8089
3 -21.8203 19.2558 18.6752
3 -18.3077 21.8479 19.0203
3 -21.8667 24.5815 18.829
3 -24.8861 24.7984 15.6895
3 -18.8814 24.6849 15.6658
3 -18.9569 18.5834 21.9384
3 -24.6616 18.7396 21.9348
4 -21.5836 21.7349 27.6322
4 -21.7189 15.4784 27.6661
2 -24.9335 18.6892 25.096
2 -24.9736 25.0103 25.1512
3 -24.7069 21.7956 24.9442
3 -21.7961 18.6304 25.128
3 -24.4871 24.5628 28.3346
3 -18.6519 24.7894 28.2726
4 -15.6512 27.513 -27.8731
3 -12.6527 28.1765 -25.171
3 -12.5047 24.8875 -28.3979
3 -18.7632 24.9087 -28.4354
4 -15.6759 27.5616 -22.1371
4 -15.2267 27.5966 -15.7576
1 -15.7043 21.715 -22.216
2 -18.748 24.9973 -25.2103
2 -18.6796 24.8933 -18.8969
3 -18.6623 28.188 -25.1429
3 -15.6522 24.7634 -25.1042
3 -12.1694 28.0303 -12.8665
3 -19.0759 28.1049 -18.9133
3 -15.6054 25.3122 -18.9272
3 -12.0893 27.9289 -18.6871
3 -12.5946 24.3892 -15.7452
3 -18.6472 24.7779 -15.7725
4 -16.0244 27.7898 -9.46382
4 -15.3697 27.6485 -3.19687
1 -15.919 22.0555 -9.4216
2 -18.8091 25.0057 -12.6334
2 -18.8779 25.0739 -6.32449
3 -19.2433 28.1779 -12.504
3 -15.7293 25.3554 -12.5501
3 -12.3035 28.1193 -0.267574
3 -19.2783 28.246 -6.51994
3 -15.7853 25.3384 -6.40443
3 -12.294 28.0997 -6.15232
3 -12.7745 24.5066 -3.1793
3 -18.752 25.0589 -3.18946
4 -16.1243 27.8588 3.09474
4 -15.3738 27.6274 9.40814
1 -15.9895 22.1522 3.09369
2 -18.9109 25.1016 -0.0529942
2 -18.9056 25.0769 6.25581
3 -19.3289 28.2738 0.128266
3 -15.8216 25.3918 0.0485966
3 -12.2677 28.0714 12.3674
3 -19.3426 28.2493 6.10322
3 -15.8176 25.4008 6.15008
3 -12.2942 28.1075 6.49224
3 -12.7624 24.4839 9.37988
3 -18.7377 25.0181 9.3947
4 -15.8885 27.7561 15.7092
4 -15.4303 27.5221 21.9625
1 -15.8696 22.0306 15.678
2 -18.8497 25.0346 12.5233
2 -18.7734 24.9979 18.7892
3 -19.2454 28.2109 12.6998
3 -15.7584 25.3295 12.628
3 -12.4657 28.0949 24.9394
3 -19.0779 28.1912 18.6206
3 -15.6858 25.2243 18.7388
3 -12.3179 28.0801 18.9148
3 -12.5687 24.5881 21.9127
3 -18.6281 24.9865 21.9185
4 -15.5136 27.4577 27.7155
4 -15.6387 21.5769 27.6089
2 -18.6657 24.9635 25.0661
3 -18.5591 28.1721 25.1059
3 -15.562 24.7052 24.9526
4 -9.41756 27.2256 -21.6927
4 -9.60893 27.35 -9.48935
4 -9.68498 27.4262 3.10111
4 -9.57476 27.3365 15.5631
4 -9.28873 27.5165 27.524
4 -27.5383 3.27825 -27.5982
4 -27.4828 9.47116 -27.8304
3 -24.7117 3.30905 -24.9092
3 -28.1338 6.48853 -25.1234
3 -24.8586 0.258617 -28.3134
4 -27.1713 3.26429 -21.6164
4 -26.9699 3.27835 -15.6631
4 -27.3387 -2.81665 -21.9326
4 -27.4525 9.15445 -15.6739
3 -28.0392 0.127172 -24.9781
3 -24.1011 3.4582 -12.6378
3 -27.9098 6.03375 -12.836
3 -27.8005 0.532834 -18.755
3 -24.0177 3.31878 -18.8374
3 -27.8557 5.94224 -18.6162
3 -24.7667 6.44493 -21.9753
3 -24.4594 0.176535 -15.6642
4 -27.2488 3.43902 -9.46197
4 -27.0701 3.40418 -3.17576
4 -27.4187 -2.31351 -9.39295
4 -27.4894 9.21381 -3.17918
3 -27.779 0.647422 -12.4595
3 -24.1346 3.53091 -0.155279
3 -27.9653 6.11425 -0.278638
3 -27.818 0.728142 -6.4796
3 -24.1254 3.49711 -6.1724
3 -27.9494 6.10217 -6.10467
3 -24.8249 6.5563 -9.43466
3 -24.6662 0.23021 -3.14987
4 -27.3098 3.50911 3.09904
4 -27.078 3.39194 9.37417
4 -27.483 -2.19674 3.09777
4 -27.4778 9.22775 9.38599
3 -27.8347 0.776492 0.132268
3 -24.1591 3.45723 12.4009
3 -27.9482 6.10489 12.3277
3 -27.8343 0.780705 6.08188
3 -24.1293 3.52286 6.36941
3 -27.9644 6.11501 6.50119
3 -24.8804 6.60678 3.10272
3 -24.669 0.219702 9.36058
4 -27.24 3.41249 15.5502
4 -27.1746 3.25742 21.6571
4 -27.4581 -2.40565 15.551
4 -27.4674 9.22935 21.9499
3 -27.8372 0.644782 12.6529
3 -24.6014 3.18613 24.8074
3 -28.0237 6.27297 24.9507
3 -27.85 0.652972 18.5315
3 -24.1217 3.38538 18.8689
3 -27.9921 6.06956 18.9186
3 -24.8038 6.52058 15.6307
3 -24.7225 0.0812636 21.8634
4 -27.4212 3.10665 27.5194
4 -27.2595 -3.08176 27.6321
3 -27.9714 -0.0535228 25.0051
3 -24.8508 6.17113 28.283
4 -21.6582 9.42929 -27.8163
4 -21.7232 15.6786 -27.8331
3 -18.67 9.48987 -25.134
3 -21.8177 12.5848 -25.2235
3 -18.8064 6.35697 -28.4362
3 -24.8492 6.32847 -28.3514
1 -21.6839 9.55104 -22.1743
1 -21.4441 9.42854 -15.7083
1 -21.634 3.36445 -22.1454
1 -21.6775 15.489 -15.7148
2 -24.9313 6.39504 -25.1284
2 -24.9654 12.573 -25.1986
2 -24.664 6.39371 -18.8151
2 -24.7865 12.5307 -18.8768
3 -24.7186 9.48633 -25.0755
3 -21.7716 6.40564 -25.0255
3 -17.9355 9.65358 -12.8808
3 -21.7316 12.0757 -12.7725
3 -25.2349 9.45713 -18.9111
3 -21.5848 7.12852 -19.0677
3 -17.8366 9.50542 -18.7973
3 -21.6667 11.8656 -18.8374
3 -24.6623 12.5541 -22.0368
3 -18.7931 12.5087 -22.07
3 -18.8085 6.3369 -15.7218
3 -24.2809 6.46392 -15.7031
1 -22.0076 9.79767 -9.41074
1 -21.4431 9.46578 -3.16735
1 -21.7908 3.88594 -9.40805
1 -21.7799 15.5047 -3.16981
2 -24.7519 6.5127 -12.5849
2 -24.8655 12.6566 -12.6071
2 -24.787 6.54705 -6.27892
2 -24.9424 12.7137 -6.30826
3 -25.206 9.58238 -12.4497
3 -21.6195 7.14155 -12.3147
3 -18.0261 9.71637 -0.381236
3 -21.822 12.1892 -0.313231
3 -25.2151 9.62477 -6.43899
3 -21.6447 7.14055 -6.55036
3 -18.0223 9.69344 -5.95273
3 -21.7976 12.176 -6.03718
3 -24.5993 12.8545 -9.45462
3 -19.0207 12.567 -9.43113
3 -18.9101 6.33139 -3.15311
3 -24.3396 6.62847 -3.16516
1 -22.1035 9.85863 3.10037
1 -21.443 9.43797 9.37927
1 -21.8491 3.96607 3.10574
1 -21.753 15.4729 9.38465
2 -24.8075 6.58239 -0.0528761
2 -24.964 12.7443 -0.0459302
2 -24.8062 6.57565 6.25395
2 -24.94 12.7392 6.24759
3 -25.2641 9.65908 0.112928
3 -21.6679 7.19419 0.244935
3 -18.019 9.6463 12.2017
3 -21.7682 12.1406 12.2555
3 -25.2631 9.65416 6.09369
3 -21.6666 7.19386 5.96644
3 -18.0146 9.70633 6.60928
3 -21.8044 12.159 6.52493
3 -24.6351 12.9424 3.10239
3 -19.1017 12.5611 3.10697
3 -18.9064 6.30392 9.37433
3 -24.3441 6.60285 9.3692
1 -21.9784 9.72857 15.6336
1 -21.5749 9.34715 21.9914
1 -21.7908 3.82196 15.6243
1 -21.6833 15.5189 21.9748
2 -24.7801 6.51546 12.4734
2 -24.909 12.685 12.506
2 -24.8019 6.44602 18.763
2 -24.8941 12.6084 18.7716
3 -25.1715 9.59357 12.6312
3 -21.6406 7.08052 12.7529
3 -18.5805 9.41191 24.7914
3 -21.7779 12.4913 24.84
3 -25.2463 9.52794 18.6793
3 -21.6656 7.08811 18.5985
3 -17.9444 9.55191 19.0878
3 -21.7717 12.0161 19.047
3 -24.5636 12.8044 15.6489
3 -19.0077 12.4948 15.6495
3 -18.8327 6.2063 21.9277
3 -24.5213 6.40336 21.8976
4 -21.5407 9.44134 27.6174
4 -21.588 3.12751 27.6693
2 -24.8262 6.27541 25.054
2 -24.9394 12.474 25.0557
3 -24.6577 9.3785 24.9541
3 -21.6908 6.29092 25.1238
3 -24.7919 12.5101 28.2685
3 -18.8153 12.4333 28.3105
4 -15.6572 15.5748 -27.8399
4 -15.6211 21.7088 -27.8346
3 -12.544 15.6275 -25.2358
3 -15.657 18.7014 -25.1606
3 -12.6504 12.4656 -28.4511
3 -18.6951 12.6082 -28.4672
1 -15.6415 15.6943 -22.2779
1 -15.2296 15.4754 -15.7547
1 -15.6792 9.53664 -22.226
1 -15.6187 21.5948 -15.7352
2 -18.7159 12.5738 -25.2679
2 -18.7496 18.7466 -25.2838
2 -18.5843 12.5806 -18.8921
2 -18.6624 18.6515 -18.9162
3 -18.7325 15.6588 -25.0829
3 -15.6303 12.5873 -25.0184
3 -11.9087 15.6295 -12.9388
3 -15.7523 18.0766 -12.8404
3 -19.4782 15.6213 -19.0574
3 -15.5394 13.3249 -19.1449
3 -11.7573 15.5429 -18.7315
3 -15.6181 17.8903 -18.8822
3 -18.6753 18.771 -22.0912
3 -12.6208 18.5579 -22.0797
3 -12.8418 12.2499 -15.746
3 -18.4714 12.916 -15.752
1 -16.2542 15.9845 -9.42052
1 -15.22 15.5289 -3.16172
1 -15.8633 10.1748 -9.42579
1 -15.6706 21.6311 -3.17692
2 -18.6596 12.6969 -12.6037
2 -18.788 18.7929 -12.623
2 -18.7104 12.7402 -6.26522
2 -18.8603 18.8484 -6.2825
3 -19.4242 15.7434 -12.3621
3 -15.603 13.361 -12.26
3 -12.0026 15.6861 -0.401756
3 -15.834 18.2034 -0.336824
3 -19.4336 15.7897 -6.55585
3 -15.6344 13.3383 -6.62883
3 -11.9932 15.6609 -5.92875
3 -15.8088 18.1928 -6.00991
3 -18.7468 19.0942 -9.44899
3 -13.0822 18.5161 -9.43742
3 -12.9634 12.2531 -3.15713
3 -18.4655 13.1545 -3.15651
1 -16.3397 16.0546 3.10544
1 -15.1962 15.5041 9.38435
1 -15.9131 10.2215 3.11027
1 -15.643 21.5938 9.37914
2 -18.7348 12.7621 -0.0472469
2 -18.8827 18.8758 -0.0557789
2 -18.7237 12.7554 6.26031
2 -18.876 18.8631 6.26434
3 -19.4681 15.8154 0.250801
3 -15.6582 13.3798 0.341579
3 -11.9654 15.6328 12.1704
3 -15.7715 18.1421 12.2531
3 -19.4832 15.8066 5.95846
3 -15.6504 13.3837 5.87809
3 -11.9852 15.6786 6.63034
3 -15.8257 18.177 6.56464
3 -18.7837 19.1975 3.10397
3 -13.157 18.5312 3.10848
3 -12.9455 12.231 9.38085
3 -18.4429 13.1312 9.3759
1 -16.1625 15.9339 15.6771
1 -15.4839 15.4397 22.0676
1 -15.8477 10.0635 15.6555
1 -15.5427 21.6596 21.9435
2 -18.6856 12.7062 12.4829
2 -18.8241 18.815 12.4985
2 -18.6838 12.5942 18.7951
2 -18.7237 18.7433 18.8123
3 -19.41 15.7574 12.7933
3 -15.6174 13.3007 12.8541
3 -12.4412 15.562 24.7867
3 -15.5939 18.6423 24.7512
3 -19.3604 15.6723 18.6101
3 -15.6119 13.3085 18.5577
3 -11.8455 15.6171 19.131
3 -15.6801 18.0798 19.1157
3 -18.665 19.0643 15.6682
3 -13.0097 18.4936 15.6631
3 -12.7371 12.3095 21.9417
3 -18.5427 12.7524 21.9339
4 -15.4826 15.6275 27.6361
4 -15.5865 9.314 27.68
2 -18.6708 12.4981 25.1134
2 -18.6863 18.6987 25.1037
3 -18.6488 15.6001 25.0768
3 -15.5734 12.486 25.1102
3 -18.5914 18.7865 28.3029
3 -12.661 18.5824 28.3019
4 -9.50543 21.69 -27.792
4 -9.45201 27.5819 -27.6571
3 -6.41026 21.7431 -25.1903
3 -9.47337 24.7551 -24.9672
3 -6.40299 18.6163 -28.4284
3 -12.5586 18.8492 -28.4811
1 -9.50839 21.6861 -22.1998
1 -9.30688 21.5452 -15.6805
1 -9.5777 15.6397 -22.2277
4 -9.42069 27.0741 -15.7171
2 -12.5681 18.7191 -25.2815
2 -12.5607 24.9746 -25.176
2 -12.5329 18.5983 -18.8961
2 -12.5402 24.7303 -18.8633
3 -12.5728 21.8156 -25.0724
3 -9.4867 18.6854 -25.0607
3 -5.94046 21.5685 -12.7715
3 -9.6041 24.208 -12.6674
3 -13.3094 21.6594 -19.096
3 -9.48649 19.3677 -19.055
3 -5.72759 21.536 -18.7822
3 -9.46658 24.0923 -18.8909
3 -12.5996 24.8117 -22.021
3 -6.37266 24.5592 -21.984
3 -6.81143 18.2983 -15.7263
3 -12.5119 18.9327 -15.7531
1 -10.0545 21.9279 -9.42468
1 -9.32754 21.6282 -3.16918
1 -9.87173 16.162 -9.42557
4 -9.57936 27.2285 -3.19282
2 -12.6834 18.668 -12.6014
2 -12.6565 24.8749 -12.6243
2 -12.7219 18.707 -6.27931
2 -12.7007 24.9339 -6.29992
3 -13.3 21.7548 -12.3553
3 -9.62663 19.3007 -12.2834
3 -6.0374 21.6532 -0.313465
3 -9.68803 24.2897 -0.154835
3 -13.2809 21.7991 -6.54694
3 -9.65969 19.29 -6.60718
3 -6.03147 21.6265 -6.01605
3 -9.65191 24.281 -6.20449
3 -12.7566 24.9531 -9.46513
3 -6.75436 24.436 -9.43263
3 -7.04439 18.2904 -3.15141
3 -12.5016 19.096 -3.1602
1 -10.137 22.0018 3.1016
1 -9.30509 21.6164 9.38099
1 -9.91426 16.2255 3.10916
4 -9.56433 27.2155 9.38456
2 -12.7473 18.734 -0.0402803
2 -12.7377 24.9578 -0.0615859
2 -12.7398 18.7253 6.25451
2 -12.7349 24.9467 6.26139
3 -13.3397 21.8262 0.224476
3 -9.68468 19.3372 0.309435
3 -6.01255 21.6242 12.2382
3 -9.62098 24.2849 12.4202
3 -13.3476 21.816 5.97961
3 -9.67612 19.3444 5.91157
3 -6.01495 21.6473 6.52857
3 -9.68271 24.2735 6.36554
3 -12.8129 25.0243 3.10188
3 -6.84196 24.4835 3.10167
3 -7.006 18.2916 9.37392
3 -12.4742 19.0741 9.37969
1 -9.9676 21.9056 15.6396
1 -9.27913 21.6052 21.9607
1 -9.80034 16.0833 15.6587
4 -9.46071 27.276 21.6575
2 -12.6852 18.6813 12.4987
2 -12.6814 24.8994 12.4876
2 -12.6014 18.6502 18.8041
2 -12.5929 24.8843 18.7823
3 -13.2598 21.7701 12.7625
3 -9.62056 19.2597 12.8305
3 -6.28234 21.6933 24.8464
3 -9.36094 24.694 24.8152
3 -13.1957 21.7479 18.599
3 -9.52877 19.3254 18.5509
3 -5.83331 21.654 19.038
3 -9.53475 24.2374 18.8768
3 -12.6934 24.9088 15.6489
3 -6.68416 24.4374 15.6248
3 -6.59741 18.4504 21.9322
3 -12.3447 18.9487 21.9311
4 -9.27894 21.6793 27.6748
4 -9.44453 15.4255 27.6633
2 -12.5012 18.654 25.1032
2 -12.4559 24.8966 25.0703
3 -12.46 21.7639 25.1635
3 -9.40637 18.6058 25.1143
3 -12.3509 24.955 28.2956
3 -6.29736 24.7581 28.2418
4 -3.26272 27.4144 -27.7456
3 -0.268061 28.022 -25.0338
3 -0.146024 24.7622 -28.3031
3 -6.43376 24.9061 -28.3715
4 -3.34623 27.3948 -21.9981
4 -3.07476 27.2946 -15.6281
1 -3.39054 21.5874 -22.1178
2 -6.38235 24.8908 -25.1412
2 -6.37477 24.6576 -18.8299
3 -6.30027 28.0841 -25.0355
3 -3.29966 24.6265 -25.0166
3 0.0940701 27.7693 -12.816
3 -6.68207 27.8743 -18.8441
3 -3.2915 25.0572 -18.8685
3 0.194578 27.725 -18.6065
3 -0.315092 24.1472 -15.6679
3 -6.31819 24.574 -15.7104
4 -3.87537 27.5673 -9.42668
4 -3.09065 27.3209 -3.17143
1 -3.67029 21.8717 -9.39944
2 -6.52475 24.7018 -12.5714
2 -6.56948 24.7735 -6.29514
3 -6.85209 27.8906 -12.4812
3 -3.44435 25.0263 -12.4003
3 0.0365481 27.8068 -0.278571
3 -6.91479 27.9574 -6.51298
3 -3.47926 25.045 -6.44551
3 0.0506206 27.7915 -6.08716
3 -0.487737 24.1763 -3.15517
3 -6.40016 24.8293 -3.16825
4 -3.98961 27.6421 3.09879
4 -3.10063 27.3226 9.3702
1 -3.73416 21.9714 3.10166
2 -6.60666 24.7957 -0.0394618
2 -6.60062 24.7849 6.23751
3 -6.97527 27.9812 0.135344
3 -3.51817 25.1017 0.139099
3 0.0431427 27.807 12.3044
3 -6.97569 27.9715 6.08202
3 -3.51218 25.107 6.06649
3 0.0376075 27.8099 6.4951
3 -0.461066 24.191 9.35925
3 -6.39109 24.8132 9.36793
4 -3.74191 27.5769 15.5678
4 -3.03554 27.3518 21.9025
1 -3.59075 21.8662 15.6117
2 -6.53441 24.7711 12.488
2 -6.4525 24.7693 18.7405
3 -6.81457 27.9617 12.6742
3 -3.44132 25.0079 12.6262
3 -0.0509369 27.92 24.8885
3 -6.83904 27.9601 18.5404
3 -3.36581 25.1293 18.6345
3 0.104678 27.8685 18.8956
3 -0.218699 24.393 21.8708
3 -6.25495 24.8495 21.8801
4 -3.08369 27.33 27.6779
4 -3.23461 21.4456 27.6076
2 -6.26012 24.8558 25.0278
3 -6.1026 28.0678 25.0489
3 -3.17094 24.5634 24.9346
4 2.89914 27.0505 -21.5857
4 2.72004 27.1118 -9.45086
4 2.64351 27.1618 3.09549
4 2.75372 27.1148 15.5159
4 3.10187 27.3269 27.4751
4 -27.4058 -9.07533 -27.46
4 -27.377 -2.90742 -27.6813
3 -24.5407 -9.03038 -24.8084
3 -27.9747 -5.89537 -24.9507
3 -24.757 -12.1196 -28.1819
4 -26.992 -9.05323 -21.5122
4 -26.7685 -8.98091 -15.5598
4 -27.1969 -15.0824 -21.7331
4 -27.2069 -3.00811 -15.5389
3 -27.8902 -12.1744 -24.7818
3 -23.913 -8.8406 -12.5319
3 -27.675 -6.20878 -12.7355
3 -27.5974 -11.7738 -18.6104
3 -23.8041 -8.97736 -18.733
3 -27.6537 -6.34849 -18.5442
3 -24.557 -5.89363 -21.8706
3 -24.2338 -12.0643 -15.5631
4 -26.9691 -8.91345 -9.38071
4 -26.7775 -8.89884 -3.13389
4 -27.0628 -14.7177 -9.32617
4 -27.1774 -3.04727 -3.14258
3 -27.5308 -11.7795 -12.3925
3 -23.8585 -8.77978 -0.119433
3 -27.6662 -6.1937 -0.257458
3 -27.5215 -11.6848 -6.40379
3 -23.8579 -8.81107 -6.14073
3 -27.6597 -6.20965 -6.04365
3 -24.583 -5.76683 -9.37091
3 -24.3449 -12.0433 -3.11402
4 -26.9812 -8.86452 3.10521
4 -26.7864 -8.91763 9.3342
4 -27.0796 -14.6279 3.10209
4 -27.1864 -3.05124 9.34824
3 -27.5144 -11.6575 0.143616
3 -23.8851 -8.85544 12.3693
3 -27.6743 -6.22409 12.2666
3 -27.5184 -11.6633 6.0835
3 -23.8595 -8.7853 6.33425
3 -27.6709 -6.2008 6.48142
3 -24.604 -5.72676 3.10573
3 -24.3426 -12.0554 9.32628
4 -26.9701 -8.94696 15.4616
4 -26.9686 -9.07985 21.5758
4 -27.1736 -14.7662 15.4306
4 -27.2479 -3.11617 21.8584
3 -27.5417 -11.7413 12.54
3 -24.4183 -9.17124 24.7444
3 -27.8378 -6.10655 24.8336
3 -27.616 -11.7086 18.4396
3 -23.9028 -8.94443 18.7954
3 -27.7623 -6.25736 18.8567
3 -24.574 -5.81527 15.5842
3 -24.51 -12.2491 21.782
4 -27.2752 -9.25877 27.421
4 -27.1443 -15.4185 27.5215
3 -27.8114 -12.3879 24.8729
3 -24.7132 -6.21091 28.2219
4 -21.528 -2.89694 -27.7289
4 -21.6473 3.33216 -27.7362
3 -18.5254 -2.84176 -25.0625
3 -21.6961 0.243954 -25.1247
3 -18.6491 -6.00526 -28.3558
3 -24.7354 -6.02809 -28.243
1 -21.5283 -2.7636 -22.0758
1 -21.2305 -2.86465 -15.6152
1 -21.4599 -8.92678 -22.0571
1 -21.4355 3.17874 -15.6433
2 -24.7722 -5.94802 -25.0214
2 -24.8452 0.219933 -25.0838
2 -24.4591 -5.91087 -18.7142
2 -24.5823 0.228148 -18.7783
3 -24.5807 -2.86213 -24.9611
3 -21.612 -5.92585 -24.957
3 -17.7 -2.60774 -12.8384
3 -21.4469 -0.160414 -12.7303
3 -24.9988 -2.85293 -18.8051
3 -21.3764 -5.17973 -18.9647
3 -17.6415 -2.78842 -18.7085
3 -21.4599 -0.42215 -18.7497
3 -24.5142 0.213984 -21.9282
3 -18.6318 0.175591 -21.9968
3 -18.5652 -5.95432 -15.6497
3 -24.0675 -5.831 -15.6098
1 -21.7258 -2.47365 -9.37745
1 -21.1731 -2.82208 -3.14298
1 -21.5153 -8.40763 -9.35958
1 -21.4677 3.19027 -3.15484
2 -24.5101 -5.77564 -12.5042
2 -24.5877 0.383839 -12.5316
2 -24.4973 -5.7514 -6.23099
2 -24.6314 0.419484 -6.27047
3 -24.8591 -2.70112 -12.3621
3 -21.3588 -5.21107 -12.235
3 -17.7252 -2.5532 -0.379009
3 -21.4978 -0.0948826 -0.29731
3 -24.8884 -2.67489 -6.40949
3 -21.3527 -5.1742 -6.54101
3 -17.724 -2.57345 -5.91054
3 -21.4785 -0.105358 -6.0029
3 -24.3145 0.598466 -9.4016
3 -18.7203 0.248321 -9.39645
3 -18.6311 -5.95353 -3.12957
3 -24.0325 -5.68583 -3.1327
1 -21.8114 -2.41269 3.10495
1 -21.1749 -2.8482 9.36221
1 -21.5355 -8.32413 3.10693
1 -21.4744 3.16582 9.37778
2 -24.5077 -5.71731 -0.0335778
2 -24.6459 0.453398 -0.0277804
2 -24.5121 -5.72255 6.24198
2 -24.6456 0.44588 6.23536
3 -24.925 -2.64062 0.146216
3 -21.363 -5.12588 0.282276
3 -17.7484 -2.63847 12.1805
3 -21.4944 -0.141283 12.2347
3 -24.9393 -2.64672 6.06492
3 -21.3677 -5.12372 5.94028
3 -17.7244 -2.56552 6.61511
3 -21.5014 -0.116682 6.52046
3 -24.3445 0.68168 3.10567
3 -18.7764 0.241291 3.11283
3 -18.6324 -5.98235 9.36137
3 -24.0485 -5.71003 9.34501
1 -21.7468 -2.55706 15.6
1 -21.3744 -2.98126 21.9455
1 -21.5262 -8.46458 15.5905
1 -21.5021 3.13229 21.9583
2 -24.5082 -5.79419 12.4376
2 -24.6445 0.374386 12.4779
2 -24.5725 -5.8742 18.7102
2 -24.6567 0.303296 18.725
3 -24.8839 -2.71948 12.613
3 -21.3685 -5.23322 12.7452
3 -18.3994 -2.94586 24.7649
3 -21.6001 0.116135 24.8491
3 -25.0017 -2.79017 18.6087
3 -21.4355 -5.24205 18.5372
3 -17.7255 -2.74125 19.0735
3 -21.5422 -0.315894 19.0134
3 -24.3254 0.532509 15.6119
3 -18.7498 0.169033 15.6333
3 -18.648 -6.13337 21.8941
3 -24.2914 -5.94916 21.8407
4 -21.3609 -2.93148 27.5943
4 -21.4245 -9.2502 27.6201
2 -24.6405 -6.0892 24.993
2 -24.7604 0.0894719 25.0118
3 -24.4727 -2.99664 24.9091
3 -21.5053 -6.07793 25.1056
3 -24.675 0.112736 28.2268
3 -18.6219 0.0416121 28.2982
4 -15.558 3.24287 -27.7975
4 -15.5405 9.49528 -27.7925
3 -12.4384 3.29275 -25.199
3 -15.584 6.3743 -25.1871
3 -12.5152 0.0816212 -28.3892
3 -18.6076 0.258984 -28.394
1 -15.5913 3.41539 -22.1819
1 -14.9004 3.10958 -15.715
1 -15.5332 -2.73891 -22.1572
1 -15.3356 9.0187 -15.7604
2 -18.5917 0.243772 -25.1969
2 -18.6736 6.40349 -25.2368
2 -18.3873 0.295377 -18.8236
2 -18.5133 6.40275 -18.864
3 -18.6443 3.32444 -24.9966
3 -15.5045 0.27085 -24.9611
3 -11.6334 3.373 -12.9479
3 -15.4851 5.79486 -12.9314
3 -19.2649 3.3421 -19.0387
3 -15.3375 0.997433 -19.0924
3 -11.6108 3.25703 -18.623
3 -15.4556 5.6365 -18.6808
3 -18.4925 6.49179 -22.038
3 -12.6048 6.17154 -22.0273
3 -12.5403 -0.102847 -15.7075
3 -18.2004 0.672438 -15.6958
1 -16.0107 3.74825 -9.41622
1 -14.8539 3.18067 -3.14935
1 -15.5603 -2.10132 -9.39383
1 -15.3419 9.02688 -3.16003
2 -18.3782 0.460911 -12.5515
2 -18.5236 6.58072 -12.5748
2 -18.3966 0.488888 -6.24521
2 -18.5464 6.60554 -6.27619
3 -19.141 3.51076 -12.2544
3 -15.3097 1.07292 -12.2075
3 -11.6606 3.41461 -0.402564
3 -15.5188 5.86867 -0.390561
3 -19.1307 3.5352 -6.60328
3 -15.313 1.07274 -6.63621
3 -11.6493 3.40124 -5.91306
3 -15.497 5.85771 -5.92335
3 -18.3304 6.98693 -9.42457
3 -12.7879 6.1486 -9.4374
3 -12.5852 -0.0522348 -3.14732
3 -18.1343 0.910794 -3.13989
1 -16.0587 3.78366 3.11429
1 -14.8749 3.15356 9.38521
1 -15.5871 -2.06149 3.11615
1 -15.3391 9.01043 9.39174
2 -18.4186 0.508566 -0.0318185
2 -18.5704 6.62968 -0.0302824
2 -18.4238 0.49626 6.25631
2 -18.5698 6.62021 6.24919
3 -19.1674 3.55785 0.322222
3 -15.3313 1.09632 0.355631
3 -11.674 3.36412 12.1733
3 -15.4941 5.82552 12.174
3 -19.1794 3.54676 5.90915
3 -15.3384 1.09431 5.87933
3 -11.6647 3.40599 6.64533
3 -15.5201 5.85192 6.62702
3 -18.3458 7.03919 3.11133
3 -12.819 6.14315 3.11623
3 -12.5945 -0.0745742 9.3899
3 -18.153 0.862715 9.37341
1 -15.9702 3.6605 15.6577
1 -15.2879 3.10892 22.0856
1 -15.584 -2.22052 15.6528
1 -15.3879 9.26293 22.0837
2 -18.4124 0.42772 12.4782
2 -18.5432 6.55286 12.4953
2 -18.468 0.324202 18.7752
2 -18.5642 6.47935 18.7933
3 -19.1222 3.47985 12.8299
3 -15.3361 1.006 12.8537
3 -12.2885 3.19933 24.8265
3 -15.4903 6.24836 24.8308
3 -19.2289 3.39437 18.5516
3 -15.3963 1.01818 18.5453
3 -11.6417 3.34643 19.1348
3 -15.5305 5.68971 19.1253
3 -18.3765 6.87753 15.654
3 -12.7804 6.1488 15.6671
3 -12.5086 -0.00975376 21.9513
3 -18.3613 0.432874 21.9202
4 -15.3544 3.23542 27.663
4 -15.4163 -3.02056 27.668
2 -18.4945 0.136686 25.0978
2 -18.5807 6.32178 25.1105
3 -18.529 3.23124 25.0979
3 -15.4007 0.128454 25.0775
3 -18.5627 6.45509 28.3111
3 -12.5354 6.18067 28.3352
4 -9.47801 9.36075 -27.7917
4 -9.38199 15.5867 -27.8203
3 -6.32375 9.3858 -25.2207
3 -9.46194 12.4868 -25.1913
3 -6.39688 6.18913 -28.4011
3 -12.4684 6.4925 -28.4252
1 -9.53852 9.52338 -22.177
1 -8.82725 9.10221 -15.7553
1 -9.49081 3.39301 -22.1603
1 -9.25443 15.0079 -15.7461
2 -12.4894 6.3786 -25.2302
2 -12.5454 12.5339 -25.2556
2 -12.3611 6.33815 -18.8718
2 -12.493 12.4512 -18.888
3 -12.5697 9.45699 -24.9469
3 -9.4092 6.4008 -24.9409
3 -5.63228 9.34045 -12.952
3 -9.5072 11.7539 -12.9637
3 -13.2066 9.39036 -19.179
3 -9.29347 7.00987 -19.1615
3 -5.56957 9.28576 -18.6351
3 -9.41784 11.6828 -18.6633
3 -12.3792 12.6766 -22.0534
3 -6.51315 12.2423 -22.0326
3 -6.50527 5.88356 -15.7329
3 -12.0983 6.68943 -15.7357
1 -10.0347 9.71639 -9.44427
1 -8.82407 9.13324 -3.15744
1 -9.5616 3.88202 -9.43938
1 -9.31353 15.0022 -3.15747
2 -12.4107 6.43347 -12.5863
2 -12.5518 12.5567 -12.5966
2 -12.4143 6.45307 -6.29208
2 -12.5787 12.5777 -6.28861
3 -13.2197 9.48776 -12.232
3 -9.32938 7.05759 -12.2314
3 -5.67873 9.37253 -0.390363
3 -9.55368 11.8143 -0.413134
3 -13.201 9.50327 -6.66295
3 -9.33297 7.0595 -6.66767
3 -5.66586 9.35394 -5.92512
3 -9.53552 11.802 -5.91568
3 -12.2983 12.9532 -9.44008
3 -6.81679 12.0995 -9.43851
3 -6.58074 5.89812 -3.15561
3 -12.0687 6.8049 -3.15618
1 -10.0642 9.74353 3.11651
1 -8.8327 9.12845 9.39687
1 -9.5786 3.90698 3.12191
1 -9.29066 15.0072 9.38445
2 -12.4343 6.47076 -0.0218181
2 -12.602 12.6018 -0.0275381
2 -12.4369 6.46267 6.25277
2 -12.5948 12.5952 6.2491
3 -13.2289 9.52353 0.363902
3 -9.34801 7.07223 0.358322
3 -5.66668 9.34938 12.1869
3 -9.50851 11.8059 12.1631
3 -13.234 9.51715 5.8673
3 -9.35038 7.07397 5.88314
3 -5.67431 9.37356 6.63706
3 -9.546 11.8097 6.64781
3 -12.2863 12.9991 3.11201
3 -6.85278 12.1084 3.11706
3 -6.57322 5.90132 9.40409
3 -12.0715 6.77966 9.38984
1 -9.9681 9.68561 15.674
1 -9.18026 9.20439 22.1094
1 -9.56647 3.81503 15.693
1 -9.26967 15.3902 22.0983
2 -12.4114 6.42264 12.5213
2 -12.561 12.5496 12.508
2 -12.4667 6.39672 18.8106
2 -12.5334 12.5531 18.8028
3 -13.1794 9.47794 12.8779
3 -9.33587 7.02947 12.8835
3 -6.17841 9.30294 24.8496
3 -9.38064 12.3643 24.8349
3 -13.2532 9.47077 18.54
3 -9.37559 7.08613 18.5682
3 -5.59876 9.38584 19.1457
3 -9.49484 11.7323 19.1173
3 -12.3088 12.9076 15.6602
3 -6.76576 12.1625 15.6687
3 -6.43258 6.06992 21.9845
3 -12.2585 6.57651 21.954
4 -9.2638 9.38069 27.7024
4 -9.35049 3.13342 27.7322
2 -12.3973 6.28144 25.1429
2 -12.4678 12.4701 25.1294
3 -12.4586 9.37778 25.1613
3 -9.30618 6.27931 25.1234
3 -12.4356 12.6541 28.3219
3 -6.41832 12.3457 28.3349
4 -3.34106 15.4693 -27.7603
4 -3.25632 21.5661 -27.7699
3 -0.199371 15.4731 -25.1835
3 -3.31833 18.5767 -25.0815
3 -0.26632 12.3191 -28.3981
3 -6.31464 12.6277 -28.4276
1 -3.38449 15.5675 -22.188
1 -2.85418 15.1887 -15.7458
1 -3.40086 9.45457 -22.171
1 -3.26651 21.3095 -15.678
2 -6.37243 12.4698 -25.2322
2 -6.40224 18.6382 -25.2306
2 -6.30944 12.3633 -18.8754
2 -6.44431 18.4608 -18.8593
3 -6.42807 15.5535 -24.956
3 -3.29149 12.4821 -24.9406
3 0.339176 15.3338 -12.9154
3 -3.52474 17.7883 -12.8766
3 -7.15188 15.4128 -19.1467
3 -3.24084 13.0628 -19.163
3 0.508148 15.3161 -18.6506
3 -3.35783 17.7214 -18.7581
3 -6.35257 18.7164 -22.0333
3 -0.315291 18.3599 -22.0085
3 -0.525349 11.9473 -15.7247
3 -6.04771 12.6589 -15.7311
1 -4.02606 15.6914 -9.41669
1 -2.89216 15.1663 -3.15095
1 -3.57898 9.84708 -9.43985
1 -3.31884 21.2837 -3.16046
2 -6.42834 12.3879 -12.5846
2 -6.58283 18.503 -12.5796
2 -6.4515 12.4008 -6.29456
2 -6.61698 18.5422 -6.26159
3 -7.22114 15.4379 -12.2292
3 -3.35304 13.0494 -12.2241
3 0.262586 15.3581 -0.38057
3 -3.58487 17.8599 -0.387861
3 -7.20848 15.458 -6.64341
3 -3.37241 13.0254 -6.65412
3 0.275857 15.3369 -5.91012
3 -3.56275 17.853 -5.92936
3 -6.38114 18.8519 -9.41841
3 -0.84527 18.1533 -9.4084
3 -0.657762 11.904 -3.14646
3 -6.08191 12.7328 -3.1559
1 -4.06605 15.7381 3.11368
1 -2.87821 15.1775 9.39763
1 -3.60424 9.87919 3.12402
1 -3.29448 21.2924 9.37925
2 -6.46963 12.4256 -0.0191359
2 -6.63915 18.5721 -0.0400432
2 -6.46234 12.4267 6.25034
2 -6.62784 18.5696 6.25535
3 -7.23696 15.4842 0.348311
3 -3.38913 13.0502 0.36631
3 0.310374 15.3455 12.1735
3 -3.50512 17.8789 12.1876
3 -7.23697 15.4847 5.87698
3 -3.38186 13.0629 5.87751
3 0.282055 15.3648 6.63193
3 -3.57206 17.855 6.62104
3 -6.37747 18.9244 3.10866
3 -0.891841 18.1731 3.11598
3 -0.635924 11.9169 9.39862
3 -6.06351 12.7302 9.38737
1 -3.91518 15.7006 15.6602
1 -3.09514 15.2662 22.0773
1 -3.55655 9.81675 15.6926
1 -3.16888 21.466 21.973
2 -6.42122 12.4014 12.5214
2 -6.57004 18.5404 12.4822
2 -6.42835 12.4258 18.8078
2 -6.46163 18.5755 18.7861
3 -7.14939 15.4643 12.8522
3 -3.34544 13.0267 12.8829
3 -0.0624096 15.39 24.7991
3 -3.22411 18.4786 24.7776
3 -7.17252 15.5051 18.5488
3 -3.33024 13.1216 18.5628
3 0.454209 15.4084 19.1379
3 -3.40732 17.8247 19.0892
3 -6.30955 18.8667 15.6406
3 -0.728319 18.2219 15.6487
3 -0.373284 12.116 21.9629
3 -6.17624 12.6402 21.9479
4 -3.13413 15.4891 27.672
4 -3.23566 9.22153 27.7331
2 -6.29075 12.3871 25.1425