5623
 Atoms. Timestep: 111082
4 -30.8072 30.9725 -25.1695
4 -30.814 30.899 -13.0284
4 -31.1415 30.3388 -0.217399
4 -30.6528 30.9234 12.4466
4 -30.5524 30.9119 25.5801
4 -30.658 25.4888 -30.9709
3 -27.9696 25.0995 -28.2143
3 -31.3577 27.6812 -27.8299
3 -27.7225 22.0759 -32.0094
4 -30.7236 24.944 -25.1797
4 -30.499 24.9317 -19.1544
4 -30.8573 18.5103 -25.1732
4 -30.7147 30.9625 -19.1996
3 -31.3712 22.1577 -28.5091
3 -27.7204 24.9637 -15.7708
3 -31.2173 27.5583 -16.0802
3 -31.2824 21.7308 -21.5826
3 -27.6841 24.9176 -22.3795
3 -30.958 27.928 -21.9369
3 -27.599 28.1556 -25.352
3 -27.5261 21.9125 -18.9686
4 -30.4988 25.0585 -12.8009
4 -30.6597 24.759 -6.46554
4 -30.4372 19.0009 -12.4425
4 -30.9395 30.6051 -6.68603
3 -31.4514 22.1451 -16.2393
3 -28.2752 25.115 -3.29133
3 -31.2605 28.3156 -3.52758
3 -31.3464 22.1741 -9.57146
3 -27.8506 25.2319 -9.83774
3 -31.3142 28.1891 -9.70853
3 -27.8983 28.3346 -12.7125
3 -28.0024 22.0877 -6.35123
4 -30.5065 24.629 0.3614
4 -30.4809 25.0876 6.36389
4 -31.2182 18.5128 0.044217
4 -30.5525 30.522 5.73305
3 -31.736 22.5028 -2.83896
3 -27.5619 25.033 9.47559
3 -31.0378 27.4158 9.42382
3 -31.4192 21.6004 3.49041
3 -27.452 25.059 3.4898
3 -31.0068 27.8361 3.16058
3 -27.6829 27.8716 -0.0918946
3 -27.5702 21.6247 6.38749
4 -30.7438 24.9969 12.316
4 -30.6236 24.8972 19.1233
4 -30.7832 18.6188 12.5943
4 -30.4948 30.9501 18.6145
3 -31.2252 22.4185 9.23904
3 -27.86 25.1894 22.1469
3 -31.4159 28.2971 22.0465
3 -31.2265 22.1806 16.1866
3 -28.4262 25.2946 15.6333
3 -31.7721 28.7701 15.6047
3 -27.6663 28.2743 12.5263
3 -27.5491 22.0057 18.8967
4 -30.4866 25.1207 25.3006
4 -30.9438 25.092 31.1312
4 -30.9363 18.6183 25.1028
3 -31.4867 22.3246 22.0535
3 -31.5194 22.0266 28.4142
3 -27.8519 25.1716 28.3827
3 -31.2795 28.0351 28.2865
3 -27.8651 28.2336 25.246
3 -27.9111 21.7703 31.815
4 -24.6299 30.8157 -31.0645
3 -21.8647 31.5503 -27.8453
3 -21.3829 28.3309 -31.4366
3 -27.5935 28.0695 -31.8027
4 -24.7496 31.1723 -25.1834
4 -24.8021 30.5933 -19.0657
1 -25.0591 24.3139 -25.4
2 -27.9712 28.1986 -28.6677
2 -27.8782 27.9884 -22.0776
3 -27.7436 31.4342 -28.4819
3 -24.8339 28.1457 -28.4471
3 -21.6763 31.2197 -15.4164
3 -27.8878 31.4484 -22.2654
3 -24.9979 28.35 -22.2111
3 -21.7782 31.1271 -22.1923
3 -22.1114 27.7413 -19.0222
3 -27.8952 28.0361 -18.9433
4 -24.3171 30.9833 -12.5915
4 -24.9697 30.5992 -5.96147
1 -25.0469 24.6985 -12.6679
2 -27.9831 28.2455 -15.8785
2 -28.0468 28.3508 -9.60692
3 -28.1335 31.3981 -15.9548
3 -24.8725 28.4189 -15.7131
3 -21.9418 31.4501 -2.68518
3 -27.7463 31.7337 -9.68222
3 -24.7551 28.5845 -9.21934
3 -21.3055 31.4568 -9.33894
3 -21.9408 27.6499 -6.27344
3 -27.9426 28.0372 -6.61617
4 -25.101 30.7031 -0.0395139
4 -24.2592 31.0597 6.49332
1 -24.9669 24.7403 0.166528
2 -28.1638 28.2239 -3.45814
2 -27.9336 28.1972 2.97011
3 -27.9141 31.346 -2.92758
3 -25.0147 27.8434 -3.34295
3 -20.9389 31.6441 9.29684
3 -28.3874 31.255 2.65912
3 -24.8873 28.5641 3.54159
3 -21.3679 31.5704 3.36347
3 -21.7155 27.4991 6.42937
3 -27.8024 28.1813 6.17841
4 -24.7425 31.3214 13.1163
4 -24.9247 30.9316 19.3537
1 -24.7681 25.1132 12.5664
2 -27.9559 28.1451 9.26995
2 -28.1181 28.4951 15.872
3 -28.4614 31.4136 9.33377
3 -24.9668 28.5784 9.42542
3 -21.6381 31.0809 21.6613
3 -27.6825 31.7369 16.1391
3 -24.9616 28.4727 16.4122
3 -21.4291 31.2312 16.11
3 -21.6726 27.5517 19.0127
3 -27.9832 28.2947 18.9019
4 -24.7115 31.3397 25.4741
4 -24.8356 30.8795 30.984
1 -25.1755 25.1973 25.5453
2 -28.0727 28.3779 22.0537
2 -28.3536 28.2528 28.7156
3 -27.8502 31.9964 22.3691
3 -24.9796 28.0003 22.0217
3 -27.4673 31.8259 27.9839
3 -24.9851 27.8955 28.4788
3 -21.2929 31.3969 28.587
3 -21.8841 28.1879 31.7707
3 -27.5121 27.7134 31.91
4 -19.124 30.4667 -24.7553
4 -18.8117 30.544 -12.1948
4 -18.3217 30.5988 -0.108054
4 -18.4687 30.8565 12.2355
4 -18.5296 30.1839 24.8693
4 -30.9193 12.8386 -30.7435
4 -30.8127 18.8535 -32.0104
3 -28.1364 12.6048 -27.9091
3 -31.5055 16.1008 -28.5475
3 -28.1221 10.0903 -31.9453
4 -30.8637 12.2425 -24.7452
4 -30.1227 12.5203 -19.0199
4 -31.0726 5.81057 -25.3535
4 -30.6321 18.6782 -19.1782
3 -31.6947 9.49351 -28.7558
3 -27.1815 12.3422 -15.8318
3 -30.9422 15.0457 -16.1042
3 -31.1847 9.75597 -21.8924
3 -27.5588 12.2071 -22.4818
3 -31.2693 15.7421 -22.1735
3 -27.6765 15.902 -25.28
3 -27.5716 9.56668 -18.9981
4 -30.7306 11.8956 -12.5049
4 -30.3041 12.1161 -6.22808
4 -30.9057 5.96817 -12.7074
4 -30.7901 18.5902 -6.17072
3 -31.3753 9.37383 -15.7114
3 -27.3432 12.333 -3.4938
3 -31.267 15.3529 -2.90586
3 -31.1934 8.92763 -9.14812
3 -27.6633 12.5537 -9.65527
3 -31.5056 15.0607 -9.33858
3 -27.8411 15.5063 -12.6126
3 -27.8366 9.22215 -6.53505
4 -30.0357 12.2802 -0.264376
4 -30.6617 12.5928 5.73841
4 -30.8381 6.50998 0.281693
4 -30.6007 18.7561 6.42968
3 -31.3395 9.47229 -2.94484
3 -27.8468 12.4702 8.9084
3 -31.4127 15.5854 8.8891
3 -31.1206 9.76945 2.54688
3 -27.6039 12.5565 3.09256
3 -31.3409 15.4155 2.90586
3 -27.7311 15.6258 -0.211945
3 -28.2251 9.3 6.38153
4 -31.1005 12.5868 12.5342
4 -30.9203 13.0064 19.0905
4 -31.0724 6.19887 12.7713
4 -30.9462 18.6476 18.5982
3 -31.5635 9.65903 9.52069
3 -27.5361 12.5689 22.1787
3 -31.0667 15.754 22.0069
3 -31.4344 9.32926 15.6498
3 -27.643 12.8129 16.051
3 -31.4222 15.63 15.3031
3 -28.0378 15.6143 12.5515
3 -28.3297 9.65327 19.0493
4 -30.4517 12.5812 25.2204
4 -30.2922 12.3558 31.3081
4 -30.9375 6.38278 25.5099
4 -31.641 18.3526 30.4143
3 -31.1805 10.4055 22.1782
3 -31.7837 8.79793 28.8103
3 -27.6899 12.7 28.6025
3 -31.3955 15.2326 28.106
3 -27.8759 15.7424 25.5505
3 -27.6202 9.57195 32.1129
4 -24.8677 18.8766 -31.1363
4 -24.8374 25.1658 -31.3208
3 -21.8199 18.8853 -28.183
3 -25.2005 21.8525 -28.2625
3 -22.2659 15.876 -32.2047
3 -28.3188 15.6733 -31.7471
1 -24.8571 18.933 -25.0583
1 -24.9835 18.6975 -18.8625
1 -24.9961 12.5793 -25.5916
1 -24.8226 24.9418 -18.8465
2 -28.2266 15.8076 -28.539
2 -28.2337 21.949 -28.639
2 -28.1007 15.7279 -22.1808
2 -28.0278 21.7826 -22.0154
3 -28.2596 18.8623 -28.7451
3 -25.1342 15.7161 -28.5592
3 -20.6424 18.8426 -16.0812
3 -24.8467 21.0826 -15.568
3 -28.084 18.7664 -21.9069
3 -24.9027 16.1525 -22.0132
3 -21.4487 18.6362 -22.586
3 -24.9481 21.4302 -22.2544
3 -28.2056 21.63 -25.2884
3 -21.8232 21.9184 -25.3486
3 -21.5543 15.5363 -19.4304
3 -27.6084 15.6344 -18.9275
1 -24.2308 18.8262 -12.1418
1 -24.9714 18.7179 -6.30528
1 -24.7483 12.4686 -12.5812
1 -25.0342 25.0676 -6.58148
2 -27.7455 15.3791 -15.8387
2 -28.2871 21.6565 -15.9676
2 -28.0609 15.6218 -9.32807
2 -28.0702 21.8481 -9.62874
3 -28.2624 18.5022 -16.1029
3 -24.6575 16.13 -15.6202
3 -21.2198 18.5097 -3.34373
3 -25.3172 21.3814 -3.03372
3 -27.9674 18.8314 -9.36965
3 -24.8284 15.6306 -9.84378
3 -21.2748 18.6059 -9.69336
3 -24.9559 21.5438 -9.35723
3 -27.9209 21.8407 -12.7676
3 -21.7595 21.6768 -12.5804
3 -22.0471 15.7318 -6.55564
3 -27.8467 15.8595 -6.41529
1 -24.9565 18.635 0.382015
1 -24.8246 18.7009 6.39422
1 -24.9601 12.4312 -0.130884
1 -24.7086 24.6619 6.15595
2 -27.8323 15.682 -3.26291
2 -28.4172 21.9639 -3.26717
2 -28.1379 15.7508 2.92935
2 -27.8957 21.9083 3.21362
3 -28.6254 18.7702 -3.21536
3 -24.7747 16.2669 -3.27332
3 -21.3734 18.6517 9.14994
3 -24.727 21.4299 9.7578
3 -28.4898 18.8359 2.97674
3 -24.605 16.075 3.47997
3 -20.8525 18.6746 3.67714
3 -24.8888 21.2264 3.38812
3 -27.8255 21.9091 0.0486274
3 -22.1069 21.3003 0.123763
3 -21.7437 15.5638 6.40344
3 -28.0072 15.7834 6.0717
1 -25.2155 18.6074 12.5307
1 -24.755 18.9222 18.8549
1 -25.2927 12.6306 12.3708
1 -24.5474 24.9265 19.2473
2 -28.1198 15.523 9.36814
2 -28.0991 21.8012 9.5681
2 -27.9664 15.7579 15.6913
2 -28.0464 22.2759 15.8335
3 -28.1156 18.646 9.48549
3 -24.9581 16.0825 9.32499
3 -21.0041 18.6599 21.8693
3 -25.0258 21.4607 22.4002
3 -28.0254 18.8729 15.9393
3 -24.794 15.993 16.1397
3 -21.509 18.557 16.8944
3 -24.9229 22.1287 15.4126
3 -28.0922 21.8091 12.6538
3 -21.939 20.7139 12.8587
3 -21.7753 14.7323 19.0431
3 -27.8391 16.0154 19.0368
1 -24.8433 18.7025 25.2931
4 -25.0114 18.6598 31.4134
1 -24.7963 12.7622 25.4526
4 -24.6118 25.0229 31.0995
2 -27.9307 15.9989 22.3276
2 -28.372 22.0936 22.1658
2 -28.1493 15.8753 28.6181
2 -28.0293 21.982 28.685
3 -28.4731 19.1231 22.0555
3 -24.7956 16.017 21.8892
3 -28.1471 18.9056 28.3574
3 -24.9443 15.7251 28.812
3 -21.8156 18.6298 28.6841
3 -24.7497 21.9599 28.0178
3 -28.2582 21.8534 25.3402
3 -21.5988 21.4145 25.2541
3 -21.4921 15.4832 31.9273
3 -28.6028 15.9058 31.7661
4 -18.4418 25.4786 -31.0975
4 -18.4514 30.7688 -31.1811
3 -15.4154 25.1347 -28.2892
3 -18.8442 28.0982 -28.0215
3 -15.2149 22.8925 -31.9785
3 -22.2019 21.8549 -31.895
1 -18.5177 24.7234 -25.2843
1 -19.1801 24.6032 -19.0126
1 -18.8486 18.2317 -25.629
4 -19.1 30.1599 -19.3704
2 -22.1766 21.9009 -28.5714
2 -21.9095 28.1397 -28.2727
2 -21.7721 21.7928 -22.1414
2 -21.9309 27.9316 -22.1139
3 -21.8518 25.0427 -28.5586
3 -18.751 22.1352 -29.0239
3 -14.829 24.8065 -15.7917
3 -18.7744 27.0457 -15.6544
3 -22.3312 24.9382 -22.0671
3 -18.6937 22.238 -22.1231
3 -15.1689 24.6846 -22.701
3 -18.8586 27.3082 -22.2131
3 -22.1017 27.8919 -25.2813
3 -15.7768 28.1927 -25.1957
3 -15.8631 22.1684 -19.0714
3 -21.9633 21.7489 -19.1308
1 -19.0825 24.7038 -12.3462
1 -18.0074 24.6862 -6.44757
1 -18.4509 18.7781 -12.9363
4 -18.7834 30.416 -5.89564
2 -21.7418 21.6385 -15.8462
2 -21.9194 27.8253 -15.7336
2 -21.6657 21.6913 -9.2911
2 -21.692 28.205 -9.52874
3 -22.5398 24.6584 -15.758
3 -18.71 22.6442 -15.7865
3 -15.6178 24.5442 -3.23453
3 -18.7896 27.6371 -3.1594
3 -22.4339 24.8204 -9.71743
3 -18.5712 22.1362 -9.57764
3 -15.1695 24.7072 -9.39267
3 -18.7764 27.3068 -9.2058
3 -22.0234 27.8102 -12.7098
3 -16.0361 27.6362 -12.5001
3 -15.8732 21.4106 -6.26911
3 -21.8708 21.7484 -6.26836
1 -18.9103 24.6125 -0.0324174
1 -18.5998 24.9573 6.39472
1 -19.231 18.5657 0.0725623
4 -18.788 30.3268 6.12512
2 -22.1775 21.5225 -3.08449
2 -21.8733 27.5662 -2.99488
2 -21.7424 21.595 3.22135
2 -21.964 28.2172 3.27749
3 -22.2586 24.6587 -2.41569
3 -19.1048 22.026 -3.13073
3 -15.0208 24.9799 9.53896
3 -18.8263 27.7395 9.5381
3 -22.2431 24.8966 2.92774
3 -18.7052 22.4124 3.45742
3 -14.8408 24.7059 3.55569
3 -18.6862 27.6021 3.25669
3 -21.8825 28.053 0.0502967
3 -15.799 27.3435 0.262753
3 -15.7994 21.4251 6.48398
3 -21.7417 21.955 6.41905
1 -18.3395 24.9741 12.9632
1 -18.4096 24.7999 18.8515
1 -18.6232 18.8551 12.5565
4 -18.5394 30.3337 18.9857
2 -21.4933 21.7162 9.63382
2 -21.8689 28.4474 9.50948
2 -21.8655 21.8517 15.7578
2 -21.8934 27.9133 16.0302
3 -22.2113 25.0171 9.89559
3 -18.3919 22.4262 10.065
3 -15.1122 24.7988 22.2744
3 -18.5493 27.0926 22.2688
3 -21.8653 24.9347 15.3891
3 -18.5878 22.3828 15.7254
3 -15.3011 25.1103 15.8971
3 -18.7264 27.9301 15.8147
3 -22.1491 28.4988 12.7428
3 -15.3915 28.1089 12.6068
3 -15.8773 21.6681 19.1462
3 -21.8727 22.103 19.0005
1 -18.0832 24.2658 25.5098
4 -18.7914 25.3611 31.2258
1 -18.5072 18.6165 25.3708
4 -18.4063 30.7733 31.5243
2 -21.6889 21.6985 22.2373
2 -21.6227 27.8441 22.228
2 -21.7326 21.7461 28.4894
2 -21.9087 27.9427 28.4597
3 -22.1217 24.654 22.713
3 -18.6462 22.3324 22.1263
3 -21.5001 24.8359 28.4993
3 -18.4253 21.6327 28.45
3 -15.7554 24.7854 29.0409
3 -18.716 28.079 28.2598
3 -21.9716 28.3846 25.3085
3 -15.4413 27.7032 25.4495
3 -15.136 21.2816 31.9397
3 -22.168 21.6789 31.7569
4 -12.0065 31.2297 -30.9991
3 -9.01038 31.2832 -28.3184
3 -9.30293 27.881 -31.3874
3 -15.4399 28.08 -31.6658
4 -12.8327 30.7559 -24.9146
4 -12.5651 30.6084 -18.8714
1 -12.1944 24.74 -25.3641
2 -15.5926 28.4801 -28.1167
2 -15.7586 27.7234 -22.1611
3 -15.3604 31.5549 -28.2832
3 -12.2452 28.4345 -28.2121
3 -9.52652 31.0867 -16.2551
3 -16.1918 31.2666 -21.9497
3 -12.6814 27.8539 -22.047
3 -9.96036 31.7467 -21.725
3 -9.48594 27.5376 -18.8017
3 -15.8245 27.3272 -18.956
4 -11.6723 31.1761 -12.86
4 -12.5005 30.7933 -6.36861
1 -12.6839 24.8552 -12.4451
2 -15.7994 27.9138 -15.8309
2 -15.6159 27.8017 -9.28769
3 -16.1531 30.9909 -16.5238
3 -12.536 28.1693 -15.049
3 -9.78236 31.236 -3.30633
3 -16.2106 31.0795 -8.7806
3 -12.5696 28.1582 -9.79436
3 -9.21023 31.3303 -9.49662
3 -9.9643 27.2899 -6.22571
3 -15.051 27.5338 -6.25326
4 -12.8365 30.8123 0.0979802
4 -12.6484 31.0965 6.42012
1 -12.3706 24.8397 0.264281
2 -15.5388 27.8685 -3.21683
2 -15.6073 27.9634 3.28111
3 -15.7279 30.9714 -3.05933
3 -12.4832 28.0734 -2.65067
3 -8.70337 31.2495 9.65645
3 -15.5417 31.0627 3.13751
3 -12.3621 28.1496 3.64329
3 -9.70879 31.4758 3.05192
3 -8.95203 27.3712 6.58794
3 -15.5857 27.8722 6.3879
4 -12.2693 30.7407 12.8046
4 -12.5382 30.9002 19.3114
1 -12.605 25.1253 12.8498
2 -15.6157 28.4558 9.46456
2 -15.6616 28.3916 15.7364
3 -15.9382 31.4431 8.76416
3 -12.3872 28.546 9.42155
3 -8.95708 31.3081 21.9007
3 -15.7496 31.591 16.386
3 -12.4335 28.2364 15.7339
3 -9.05239 31.4042 16.3159
3 -9.76286 27.6778 19.0371
3 -15.2743 28.0389 19.0102
4 -12.4459 31.1577 25.3556
4 -12.2841 30.2915 31.5303
1 -12.0947 25.0421 25.5317
2 -15.5252 28.0023 22.3275
2 -15.6571 28.1451 28.6851
3 -15.911 31.4368 22.2887
3 -12.3812 28.5049 22.3605
3 -15.4634 31.5141 28.6937
3 -12.5515 27.6434 28.6781
3 -9.88001 31.5569 28.665
3 -8.95932 28.3022 31.702
3 -15.5212 27.9625 31.8916
4 -5.98648 30.6677 -24.5384
4 -6.15352 30.8475 -12.636
4 -6.22802 30.3956 0.649552
4 -5.75541 30.4399 12.4389
4 -6.22743 31.4099 24.8565
4 -30.3654 -0.164646 -31.3838
4 -31.0249 6.43306 -31.5524
3 -28.0531 0.0698582 -28.403
3 -31.4184 3.18894 -28.847
3 -28.4986 -3.66962 -32.2304
4 -30.3031 0.11027 -25.1591
4 -30.5638 0.241224 -19.0312
4 -30.9167 -5.88412 -25.2461
4 -30.7421 5.65225 -18.7112
3 -31.5721 -2.85714 -27.9631
3 -27.2826 0.0147929 -15.7635
3 -31.2344 2.71403 -15.7603
3 -31.1593 -2.55084 -22.0537
3 -27.317 -0.0532116 -22.2808
3 -31.4637 2.90282 -21.8681
3 -27.9605 3.47714 -25.4743
3 -27.8268 -2.89284 -19.2191
4 -30.798 -0.163053 -12.8976
4 -30.1591 -0.0835633 -6.70991
4 -31.0165 -6.18327 -12.7454
4 -30.6094 5.96565 -6.79601
3 -30.9128 -2.64096 -16.1627
3 -27.3008 0.180175 -3.71158
3 -31.3181 2.06027 -3.28882
3 -31.2237 -3.05858 -9.61149
3 -27.5954 -0.115169 -10.0598
3 -31.1756 3.04908 -9.40808
3 -27.8487 3.30661 -12.7155
3 -27.6611 -3.08266 -6.63829
4 -30.4556 0.277179 0.0108677
4 -30.9421 -0.0300662 6.55605
4 -30.7954 -6.08863 -0.0530845
4 -30.8895 6.3483 6.28107
3 -31.1554 -3.12705 -3.40436
3 -28.0162 0.135454 9.48294
3 -31.4534 3.54489 9.51931
3 -31.2233 -2.07978 3.12538
3 -27.2085 0.199526 2.84488
3 -31.166 2.39514 3.32962
3 -27.5445 3.14718 -0.198122
3 -27.8585 -2.94429 6.46708
4 -30.7643 0.334466 12.8369
4 -30.6788 0.39943 18.3266
4 -31.1979 -5.79321 12.6976
4 -30.202 6.21524 18.9699
3 -31.12 -2.88471 9.53814
3 -27.5428 0.184489 22.387
3 -31.0285 2.71023 22.0607
3 -31.3239 -2.71453 15.5982
3 -27.8246 0.294872 15.8698
3 -31.5265 3.37248 15.8344
3 -28.1408 3.31339 12.6245
3 -28.3711 -2.72589 19.0498
4 -30.6602 0.153359 25.4348
4 -30.9225 0.398465 31.333
4 -30.775 -6.13154 24.7678
4 -30.1788 6.23368 31.659
3 -31.321 -2.39681 22.484
3 -31.6317 -2.99366 28.0929
3 -27.7643 0.14285 28.5799
3 -31.2125 3.32773 28.8334
3 -28.057 3.07466 25.6626
3 -29.1499 -3.14169 31.6002
4 -24.9848 6.49171 -31.1309
4 -25.1071 12.4884 -31.3939
3 -21.9858 6.24756 -28.2941
3 -25.0035 9.64325 -28.4657
3 -21.9096 3.2196 -32.0601
3 -28.4508 3.23423 -31.9141
1 -24.8798 6.30308 -25.6247
1 -24.9898 6.44711 -19.2901
1 -24.9813 -0.245328 -25.6423
1 -24.9384 12.3572 -19.6096
2 -28.2195 3.36501 -28.5197
2 -28.2252 9.43895 -28.5297
2 -28.2579 3.07499 -22.398
2 -27.843 9.07955 -22.2331
3 -28.2214 6.33845 -29.0733
3 -25.034 3.17604 -28.4275
3 -20.5939 6.41271 -15.7268
3 -24.6226 8.59357 -16.0179
3 -28.7203 6.16245 -22.1162
3 -25.0679 4.08053 -22.4276
3 -20.8791 6.37888 -22.5369
3 -24.7703 9.00912 -22.6965
3 -28.1462 9.06758 -25.3951
3 -21.8363 9.62931 -25.799
3 -22.2904 3.63588 -18.9989
3 -27.6606 3.26769 -19.0853
1 -24.7444 6.30768 -12.6732
1 -24.797 6.0983 -6.87516
1 -24.6987 -0.337521 -12.8678
1 -24.8442 12.704 -6.85753
2 -28.1041 3.19458 -15.7048
2 -28.1433 9.39841 -15.8808
2 -27.9029 2.9932 -9.77042
2 -27.7838 9.47235 -9.58497
3 -28.1684 6.19324 -15.7739
3 -24.8566 3.9783 -15.7151
3 -21.5484 6.30218 -3.17959
3 -25.0598 8.66618 -3.24167
3 -27.7739 6.25675 -9.64747
3 -24.8269 2.9697 -9.81803
3 -21.439 6.04563 -9.65741
3 -24.5483 8.90369 -9.75792
3 -27.6643 9.25483 -12.7655
3 -21.5184 9.52655 -12.7733
3 -21.9132 3.14769 -6.65651
3 -27.7323 2.9812 -6.60133
1 -24.5556 6.02731 -0.324448
1 -25.1418 6.13874 6.27388
1 -25.0905 0.0726976 -0.44138
1 -24.8053 12.618 6.07898
2 -28.2108 3.16715 -3.50818
2 -28.1081 9.29237 -3.17227
2 -28.0859 3.01435 3.07529
2 -28.0946 9.37012 3.27232
3 -28.5731 6.17247 -3.18491
3 -24.9793 3.95472 -3.58123
3 -21.0931 6.17921 9.50586
3 -25.129 8.73798 9.33132
3 -28.6141 6.07198 3.32833
3 -25.1432 3.98255 2.96382
3 -21.165 6.14184 2.852
3 -25.0419 9.07896 3.65192
3 -27.4927 9.12709 0.0832863
3 -22.4388 9.53214 0.0281154
3 -22.1743 2.99109 6.53897
3 -27.9848 2.97122 6.3116
1 -25.2452 6.3122 12.6831
1 -25.2522 6.21664 18.947
1 -25.4407 0.39547 12.5547
1 -24.9923 12.5943 19.1154
2 -28.1376 3.337 9.53951
2 -28.478 9.38732 9.48729
2 -28.178 3.28681 15.9107
2 -28.2221 9.68048 15.9804
3 -28.4364 6.35256 9.4376
3 -25.0037 3.5074 9.67928
3 -21.2539 6.24396 21.6444
3 -24.9675 8.62755 22.1304
3 -28.1822 6.44551 15.6308
3 -25.0673 3.71373 15.7432
3 -21.4762 6.32653 16.1221
3 -25.1203 9.33604 16.3029
3 -28.2919 9.93187 12.742
3 -22.3398 9.12225 12.7982
3 -22.1438 2.65501 19.1027
3 -27.674 3.14333 19.1227
1 -24.704 6.38836 25.775
4 -24.681 6.41142 31.7439
1 -24.9086 0.203144 25.7338
4 -24.4493 12.5566 31.0415
2 -27.9619 3.03134 22.4406
2 -28.1513 9.3316 22.232
2 -27.9495 3.31978 28.9781
2 -28.4076 9.62736 28.644
3 -28.4623 6.12121 22.4074
3 -24.9337 3.91939 22.8471
3 -27.8497 6.39069 28.7594
3 -24.9277 3.28566 28.5917
3 -21.9743 6.20095 28.9217
3 -24.9322 9.38917 28.7598
3 -28.2893 9.41219 25.579
3 -21.7602 8.99624 25.4709
3 -22.1684 3.14392 32.0626
3 -27.9778 3.12587 32.0498
4 -18.8165 11.9719 -31.6548
4 -19.5726 18.7003 -31.9504
3 -15.6389 12.5699 -28.7963
3 -19.0199 15.6118 -28.7851
3 -15.6143 9.4459 -32.1929
3 -21.8213 9.00131 -32.084
1 -18.7258 12.646 -26.2315
1 -18.6384 12.5124 -19.2825
1 -18.73 6.55103 -25.6534
1 -18.8168 18.6348 -19.2917
2 -21.6504 9.55819 -28.8434
2 -21.9964 15.7242 -28.7817
2 -21.6649 9.34026 -22.4979
2 -21.8413 15.4162 -22.6206
3 -21.8761 12.705 -29.1619
3 -18.4879 9.50863 -28.5291
3 -14.7431 12.3952 -15.7731
3 -18.6189 15.1098 -15.8275
3 -22.531 12.3839 -22.4175
3 -18.5666 10.5598 -22.7961
3 -14.7605 12.3549 -22.7883
3 -18.6664 15.0901 -22.6498
3 -21.955 15.4657 -25.7005
3 -15.9251 15.6016 -25.8808
3 -15.6853 9.66169 -19.1541
3 -21.9789 9.10914 -19.2751
1 -18.5353 12.6219 -12.6523
1 -18.4652 12.3473 -6.46081
1 -18.6985 6.57913 -12.411
1 -18.9109 18.7433 -6.34705
2 -21.6167 9.5849 -15.8921
2 -21.6082 15.9228 -16.1192
2 -21.5537 9.43125 -9.64558
2 -21.7162 15.4557 -9.58466
3 -22.3232 12.8256 -16.1948
3 -18.5824 10.5011 -16.0032
3 -14.6946 12.3445 -3.33381
3 -18.4993 14.6821 -2.95605
3 -22.2625 12.3242 -9.6302
3 -18.3925 9.62191 -9.64506
3 -15.3309 12.2888 -9.69513
3 -18.7005 14.8014 -9.32225
3 -21.5549 15.8606 -12.8928
3 -15.6613 15.6366 -13.008
3 -15.46 9.40959 -6.33442
3 -21.2295 9.30631 -6.60244
1 -18.4222 12.2907 0.223776
1 -18.8114 12.2946 6.38736
1 -19.1776 7.18773 -0.158736
1 -18.3236 18.0271 6.33216
2 -22.1264 9.43934 -3.44121
2 -21.6415 15.2863 -3.15428
2 -21.897 9.28351 3.23266
2 -21.5735 15.4373 3.32083
3 -22.9036 12.5637 -3.45865
3 -18.8935 10.1665 -2.78827
3 -14.9812 12.4316 9.68168
3 -18.8154 15.0887 9.52695
3 -22.0653 12.3874 3.32965
3 -18.5613 9.81812 3.03139
3 -14.8919 12.2866 3.50846
3 -18.3509 14.9086 3.23229
3 -21.9435 15.5556 0.031056
3 -15.3696 15.2657 0.106842
3 -15.7751 8.75492 6.44236
3 -21.7691 9.3361 6.41342
1 -18.4011 12.5481 13.1975
1 -18.7206 12.3091 19.5917
1 -19.2906 6.68663 12.7872
1 -18.145 18.4123 19.132
2 -21.9698 9.23893 9.53666
2 -21.9399 15.5452 9.66625
2 -21.9555 9.55069 16.0399
2 -21.7542 15.5878 15.8475
3 -22.3634 12.3337 9.82152
3 -18.6376 10.2116 9.6855
3 -15.2803 12.3311 22.1233
3 -18.5412 15.1458 22.411
3 -22.0991 12.5598 15.2121
3 -18.785 10.0297 16.1961
3 -15.006 12.5855 16.0286
3 -18.3749 15.4867 16.1983
3 -22.082 15.8801 12.8187
3 -15.6316 15.6227 12.7945
3 -15.5115 8.78633 19.2175
3 -21.9835 9.66499 19.3069
1 -18.7511 12.4367 25.2668
4 -18.586 12.6214 31.2879
1 -18.4661 6.26225 25.9528
4 -18.1357 18.4665 31.003
2 -22.0234 9.36005 22.3224
2 -21.8085 15.4818 22.0612
2 -21.6434 9.12603 28.7726
2 -21.7578 15.4734 28.7916
3 -22.4808 12.3798 22.4113
3 -18.6465 9.85271 22.3274
3 -21.6507 12.4847 28.1803
3 -18.6577 9.67031 28.4338
3 -15.4392 12.5862 28.6949
3 -18.3619 15.5601 27.8984
3 -21.9677 15.7914 25.2282
3 -15.3092 15.4376 25.3866
3 -15.8129 9.53463 31.9188
3 -21.5938 9.7584 31.99
4 -12.4893 19.0007 -32.1397
4 -12.2796 25.4112 -30.8853
3 -9.40721 18.8507 -29.5816
3 -12.4472 21.7478 -28.5258
3 -9.86976 15.5141 -32.2392
3 -15.8769 15.1856 -32.3133
1 -12.4081 18.8392 -26.1119
1 -12.5818 18.3052 -19.2926
1 -12.6456 12.8276 -25.8014
1 -12.556 24.4748 -19.1978
2 -15.8452 15.7301 -29.1036
2 -15.581 22.0171 -28.7895
2 -15.6373 15.5651 -22.5322
2 -15.6719 21.5921 -22.2375
3 -15.9426 18.9189 -29.6172
3 -12.6233 15.7503 -28.5892
3 -8.05107 18.6845 -16.3229
3 -12.6124 20.9125 -16.5138
3 -16.0401 18.5401 -21.8739
3 -12.5831 16.1828 -22.5803
3 -8.52309 18.3529 -22.1969
3 -12.363 21.1103 -22.2072
3 -15.4983 21.3619 -25.589
3 -9.44995 21.3308 -25.3262
3 -9.57025 15.2153 -19.264
3 -15.2833 14.8368 -19.4441
1 -12.7198 18.5911 -12.8562
1 -12.6987 18.2143 -6.38159
1 -12.5773 12.9199 -12.6325
1 -12.5917 24.2503 -6.18754
2 -15.4419 15.3506 -16.1286
2 -15.4971 21.6575 -15.8202
2 -15.6156 15.2772 -9.79161
2 -15.5198 21.6517 -9.61344
3 -16.2219 18.5026 -16.5905
3 -12.4606 16.2961 -16.0523
3 -8.58027 18.4496 -3.05828
3 -12.6611 20.9956 -3.47782
3 -16.3623 18.3204 -9.55693
3 -12.5674 16.0447 -10.0977
3 -8.76199 18.5518 -9.68849
3 -12.487 20.9942 -8.97845
3 -15.2219 21.7925 -12.6734
3 -10.1049 21.6309 -12.6494
3 -9.60629 15.3393 -6.56829
3 -15.5578 15.5872 -6.39163
1 -13.108 18.9252 -0.202957
1 -12.3978 18.648 6.18345
1 -12.4737 12.5712 0.132351
1 -12.447 24.815 6.51862
2 -15.3602 15.3724 -3.09376
2 -15.9876 21.3279 -3.17964
2 -15.1944 15.5688 3.36657
2 -15.6878 21.6573 3.30468
3 -16.5564 18.2679 -2.8985
3 -12.3108 16.3168 -3.005
3 -8.48882 18.7263 9.74415
3 -12.2843 21.1356 9.5268
3 -16.0608 18.5106 3.2932
3 -12.1737 16.4037 2.77828
3 -8.59707 18.4161 3.46966
3 -12.513 21.1745 3.35377
3 -15.8625 21.6897 -0.00616876
3 -9.29321 21.4719 0.164689
3 -9.73315 14.896 6.39197
3 -15.0629 15.6559 6.53183
1 -12.4019 18.9842 12.9858
1 -11.7972 18.8111 19.2253
1 -12.4973 11.9614 13.0559
1 -12.5286 24.9712 19.0406
2 -15.6749 15.4503 9.52505
2 -15.3815 21.705 9.47939
2 -15.2304 15.7367 15.8304
2 -15.3923 21.9339 15.7503
3 -16.0693 18.5639 9.52304
3 -12.2277 15.9247 10.3716
3 -8.77451 18.9157 21.8494
3 -12.1915 21.4454 22.0788
3 -15.7713 18.8628 15.4506
3 -12.036 15.8973 15.5683
3 -8.97446 18.6301 16.4668
3 -12.4685 21.4928 16.0984
3 -14.9316 21.976 12.7823
3 -9.41127 21.5607 13.0231
3 -9.223 15.1643 19.2323
3 -14.7863 15.7085 19.0299
1 -12.0566 18.8152 25.1745
4 -12.1445 18.9039 31.2679
1 -12.6685 12.5567 25.753
4 -12.2161 25.0471 31.6326
2 -15.2653 15.5552 22.1169
2 -15.4758 21.7876 22.3117
2 -15.3675 15.7366 28.6593
2 -15.1424 21.8261 28.6071
3 -15.7935 18.5967 22.3955
3 -12.2531 16.0745 22.4389
3 -15.0602 18.8609 28.0965
3 -12.1506 15.7177 28.3796
3 -9.18587 18.7382 28.8781
3 -12.0389 22.2159 28.9289
3 -14.9361 22.0139 25.3937
3 -9.23838 21.5006 25.5142
3 -9.35317 15.6969 32.2048
3 -15.1685 15.4153 31.8919
4 -6.42218 24.933 -30.6913
4 -6.18394 30.9826 -31.057
3 -3.13422 25.0328 -28.1885
3 -6.056 28.1284 -28.0114
3 -3.24431 21.919 -31.6223
3 -9.114 22.599 -31.7438
1 -6.05593 24.9489 -24.8657
1 -6.05859 24.8161 -18.9491
1 -6.54723 18.2158 -25.3699
4 -6.58188 30.5196 -19.0979
2 -9.39373 22.142 -28.5678
2 -9.09918 28.2104 -28.153
2 -9.28283 21.5729 -22.2985
2 -9.35724 27.7945 -21.9965
3 -9.20446 25.2375 -27.73
3 -6.29416 21.8966 -28.1868
3 -2.9164 24.6657 -15.4352
3 -6.36694 27.7241 -15.9036
3 -9.44092 24.6657 -22.8646
3 -6.35607 22.0136 -21.9821
3 -2.98735 24.6285 -22.26
3 -6.33876 27.7639 -21.8209
3 -9.29408 28.3977 -25.0351
3 -3.08599 27.9491 -25.1448
3 -3.58656 21.7545 -18.9178
3 -9.29563 22.5079 -18.9824
1 -6.05903 24.8636 -12.1815
1 -6.57698 24.9291 -6.25831
1 -6.26804 19.1076 -12.596
4 -6.66297 30.6258 -6.26644
2 -9.07505 21.7423 -15.8612
2 -9.58504 27.9859 -15.6059
2 -9.27674 21.7231 -9.53446
2 -9.3841 28.0069 -9.26951
3 -9.93108 24.9151 -15.2507
3 -6.23617 22.3248 -15.0444
3 -2.941 24.8095 -3.70323
3 -6.38879 27.7763 -3.29698
3 -9.41381 24.7807 -9.94276
3 -6.08754 21.9301 -9.89573
3 -2.98102 25.0161 -8.52301
3 -6.32784 27.8755 -9.11102
3 -8.95442 28.2008 -12.4811
3 -3.22475 28.2997 -12.3793
3 -3.58976 21.164 -6.20217
3 -9.26649 22.0549 -6.41346
1 -6.68079 24.7729 0.336498
1 -6.14924 24.5701 6.23528
1 -6.31006 18.9557 0.153269
4 -6.11309 30.5092 6.53909
2 -9.51956 21.4381 -3.15626
2 -9.51433 27.9117 -3.1473
2 -9.229 21.4005 3.44986
2 -9.37357 28.303 3.63526
3 -9.82878 24.6946 -3.00763
3 -6.38601 22.209 -2.97655
3 -2.37492 24.7168 9.16629
3 -6.10475 27.4687 9.67557
3 -9.5368 24.856 3.23375
3 -6.18438 22.081 3.13425
3 -2.82833 24.8083 3.65972
3 -6.2282 27.5624 3.48471
3 -9.31159 27.755 0.42651
3 -3.46319 27.0755 0.0902286
3 -3.00021 21.4161 6.41799
3 -9.01005 21.8731 6.50715
1 -6.35289 24.8974 12.875
1 -5.91619 25.0412 19.1343
1 -6.19344 19.2566 13.0523
4 -6.39296 30.3396 18.8852
2 -9.10813 21.8366 9.73384
2 -9.27981 28.0614 9.50324
2 -9.25536 21.8488 16.137
2 -9.40532 28.2643 15.9031
3 -10.1149 24.7387 9.65433
3 -5.99211 22.2923 9.86583
3 -2.83528 24.9105 22.8073
3 -6.27033 28.0969 22.0782
3 -9.74636 25.0199 15.8469
3 -6.25144 22.0565 15.7029
3 -2.98737 24.8861 16.0406
3 -6.1964 27.6168 15.643
3 -9.38457 27.9054 12.5907
3 -3.18248 27.3452 12.7416
3 -2.83781 21.9005 19.1719
3 -9.16884 22.5969 19.2171
1 -5.94399 25.1348 25.3164
4 -5.96777 25.3112 30.7468
1 -5.91405 18.8542 25.9789
4 -6.39273 31.3612 30.8205
2 -9.11536 22.0286 22.2306
2 -9.40147 28.1406 22.1129
2 -9.04547 21.9884 28.3678
2 -9.3217 28.2575 28.5671
3 -9.75522 25.0626 22.5502
3 -6.07662 22.1167 22.179
3 -9.0025 25.1618 28.1788
3 -5.85076 21.9464 28.7588
3 -3.17604 25.1058 28.2962
3 -6.36396 28.4952 28.2034
3 -9.28885 28.3477 25.2006
3 -3.3265 28.4323 25.2498
3 -2.65213 22.1518 32.151
3 -8.81048 22.658 31.7214
4 -0.245752 31.0203 -30.9816
3 2.75168 31.4392 -28.4071
3 2.62807 28.1403 -31.6388
3 -3.04935 28.4901 -31.9006
4 -0.285285 30.6512 -24.976
4 -0.315372 30.4613 -18.7471
1 -0.0793657 24.6375 -25.2967
2 -3.08995 28.3119 -28.4626
2 -3.05298 27.7858 -22.0658
3 -3.27908 31.5768 -28.5456
3 -0.084307 28.0187 -28.3998
3 3.07428 31.1427 -16.3801
3 -3.41319 30.9626 -21.6046
3 -0.0710475 27.9216 -21.9769
3 2.44945 31.1389 -22.0436
3 3.00653 27.3013 -18.7853
3 -3.10373 27.6294 -18.9404
4 0.016871 30.9723 -12.7255
4 0.721828 30.8763 -6.11163
1 -0.249693 25.1964 -12.354
2 -3.29066 28.0018 -15.7793
2 -3.23961 28.6092 -9.23674
3 -3.39937 31.0288 -16.313
3 -0.013175 28.1618 -15.4481
3 3.72904 31.1006 -2.61625
3 -4.36073 31.6055 -9.29269
3 0.0453849 28.5427 -9.45967
3 3.39067 31.5582 -9.59147
3 3.28896 27.8712 -6.15859
3 -3.10567 28.5394 -6.10945
4 0.755614 30.8793 0.29948
4 0.0813958 30.6105 6.25137
1 -0.246176 24.6733 0.0434537
2 -3.28988 28.1893 -2.9694
2 -3.19584 27.7741 3.18416
3 -3.41593 31.3014 -1.86364
3 -0.0661329 28.5578 -2.96924
3 3.49155 31.2824 10.0095
3 -3.53163 30.9806 3.41384
3 -0.128158 28.1314 2.93165
3 3.68798 31.3351 3.14249
3 2.87929 28.0284 6.44025
3 -2.94841 27.859 6.39203
4 -0.66159 30.5569 12.7232
4 -0.429924 30.9539 18.7506
1 0.207847 24.8049 12.4777
2 -2.9257 27.8521 9.4912
2 -3.0196 27.9913 15.8878
3 -3.09717 31.106 9.07903
3 0.0971917 28.2348 9.76863
3 3.86464 31.0428 22.0616
3 -3.53027 31.0859 15.8466
3 0.0133967 28.1369 15.6642
3 3.33249 31.1552 15.6717
3 3.09391 28.0229 18.9922
3 -3.16496 27.8908 19.0273
4 -0.298188 31.0043 25.3365
4 -0.140605 30.882 30.9967
1 0.0287932 24.4142 25.7965
2 -3.15877 28.2941 22.0671
2 -3.31203 28.2829 28.4267
3 -3.78552 31.6956 21.7427
3 0.0401101 28.7654 22.0786
3 -3.18381 31.8601 28.6912
3 -0.130444 27.9126 28.0289
3 2.94021 31.1957 28.3922
3 2.87938 28.1252 32.0943
3 -3.10644 28.4401 31.5408
4 6.26769 30.466 -24.7476
4 6.27861 30.7656 -12.5569
4 6.40953 30.5463 0.524518
4 6.43046 30.981 12.6233
4 6.29144 30.5779 25.3103
4 -30.5383 -12.3759 -31.5788
4 -31.6057 -6.10826 -30.9842
3 -27.838 -12.4733 -28.5155
3 -31.3425 -9.64355 -28.5702
3 -28.1257 -15.5585 -32.0481
4 -30.5908 -12.4014 -25.4384
4 -30.8562 -12.5024 -19.0949
4 -30.6514 -18.7703 -25.4523
4 -30.9538 -6.18016 -18.6232
3 -31.5367 -15.6244 -29.3185
3 -27.6396 -12.624 -15.9566
3 -31.6039 -9.70888 -16.2766
3 -31.0648 -15.4281 -22.7415
3 -27.6829 -12.4786 -22.9829
3 -31.3564 -9.6231 -22.303
3 -28.0123 -8.97874 -25.6788
3 -27.9592 -15.2522 -19.3345
4 -30.9201 -12.8445 -12.5831
4 -30.3694 -12.478 -6.279
4 -30.6831 -18.7338 -12.7656
4 -30.5078 -6.46359 -6.42055
3 -31.2394 -15.3773 -16.2698
3 -27.1581 -12.4502 -3.10878
3 -31.0414 -9.50705 -3.12424
3 -31.2568 -15.2991 -9.52498
3 -27.4308 -12.6801 -9.74688
3 -31.4888 -10.1908 -9.39643
3 -28.7061 -9.34121 -12.7175
3 -27.9393 -15.3574 -6.44868
4 -30.1558 -12.3692 0.14013
4 -30.2334 -12.6409 6.0673
4 -30.5178 -18.0232 -0.0638098
4 -31.25 -6.52218 6.30991
3 -31.2323 -15.1397 -2.41214
3 -27.2119 -12.3463 9.43852
3 -31.2941 -9.64858 9.4279
3 -31.1556 -14.9917 2.9538
3 -27.3822 -12.2052 3.23089
3 -31.3207 -9.97726 3.25419
3 -27.8157 -9.1289 0.187133
3 -27.5152 -15.3271 6.18262
4 -30.4921 -12.413 12.3251
4 -30.6625 -12.4311 18.8619
4 -30.9273 -18.2463 12.454
4 -30.9426 -6.7862 18.8546
3 -30.9844 -15.1589 8.91563
3 -27.6342 -12.3411 22.0525
3 -31.4069 -9.86777 21.5726
3 -31.5399 -15.4791 16.2335
3 -28.0614 -12.5504 15.8458
3 -31.3114 -9.4462 15.7107
3 -27.8262 -9.43631 12.799
3 -27.9347 -15.4435 19.0038
4 -31.0159 -12.3762 25.0199
4 -30.7104 -12.3242 31.4221
4 -30.9424 -18.6304 24.7266
4 -31.4144 -6.21091 30.8363
3 -31.2902 -15.4804 21.8293
3 -31.9169 -15.6115 29.034
3 -28.0957 -12.468 28.2847