5623
 Atoms. Timestep: 1080
I -30.7763 30.6034 -25.1131
I -31.1329 30.3828 -12.6533
I -31.2444 30.4276 7.02507e-15
I -31.1329 30.3828 12.6533
I -30.7763 30.6034 25.1131
I -30.7601 25.006 -30.858
I -27.9632 25.007 -28.1316
I -31.3997 27.6902 -27.8571
I -28.0689 21.9361 -31.5468
I -30.531 24.9094 -24.9471
I -30.4897 24.8893 -18.8831
I -30.725 18.8489 -25.2499
I -30.8709 30.4486 -18.9129
I -31.348 21.8358 -28.2567
I -27.6482 25.0676 -15.7683
I -31.3276 27.7532 -15.82
I -31.266 22.2483 -22.0315
I -27.578 24.9556 -22.0142
I -31.2489 27.7966 -22.006
I -27.8896 27.966 -25.1314
I -27.9423 21.8166 -18.8842
I -30.5794 25.0505 -12.6215
I -30.658 25.0467 -6.3128
I -30.9529 19.1734 -12.5683
I -31.1254 30.4542 -6.34206
I -31.3434 22.415 -15.6222
I -27.744 25.1899 -3.19892
I -31.4484 27.809 -3.18631
I -31.4197 22.4425 -9.63409
I -27.7358 25.1431 -9.41379
I -31.4124 27.7831 -9.47791
I -27.9644 28.0811 -12.6104
I -28.2303 21.9324 -6.29846
I -30.6394 25.1434 6.29664e-15
I -30.658 25.0467 6.3128
I -31.0441 19.3182 3.04816e-15
I -31.1254 30.4542 6.34206
I -31.4446 22.5361 -2.98557
I -27.7358 25.1431 9.41379
I -31.4124 27.7831 9.47791
I -31.4446 22.5361 2.98557
I -27.744 25.1899 3.19892
I -31.4484 27.809 3.18631
I -28.0423 28.1797 4.66358e-15
I -28.2303 21.9324 6.29846
I -30.5794 25.0505 12.6215
I -30.4897 24.8893 18.8831
I -30.9529 19.1734 12.5683
I -30.8709 30.4486 18.9129
I -31.4197 22.4425 9.63409
I -27.578 24.9556 22.0142
I -31.2489 27.7966 22.006
I -31.3434 22.415 15.6222
I -27.6482 25.0676 15.7683
I -31.3276 27.7532 15.82
I -27.9644 28.0811 12.6104
I -27.9423 21.8166 18.8842
I -30.531 24.9094 24.9471
I -30.7601 25.006 30.858
I -30.725 18.8489 25.2499
I -31.266 22.2483 22.0315
I -31.348 21.8358 28.2567
I -27.9632 25.007 28.1316
I -31.3997 27.6902 27.8571
I -27.8896 27.966 25.1314
I -28.0689 21.9361 31.5468
I -25.0643 30.7496 -30.905
I -21.9391 31.3704 -28.2313
I -21.8939 28.1126 -31.5269
I -27.8125 27.7701 -31.5482
I -24.8167 30.7558 -25.1782
I -24.5329 30.8366 -18.9418
Cs -24.9653 24.9057 -25.2695
Pb -28.2327 28.2124 -28.346
Pb -28.0559 28.113 -22.0042
I -27.8096 31.3889 -27.9153
I -25.016 27.9709 -28.1775
I -21.5697 31.3096 -15.8905
I -28.3308 31.3383 -21.9875
I -24.9459 28.4226 -22.0261
I -21.5134 31.1767 -21.9147
I -21.8883 27.7141 -18.8825
I -27.8355 27.9738 -18.8855
I -24.8225 31.028 -12.6336
I -24.6471 31.0024 -6.33034
Cs -25.1307 25.0925 -12.5798
Pb -28.1448 28.2134 -15.7574
Pb -28.2255 28.2847 -9.45625
I -28.6267 31.3973 -15.6854
I -25.0403 28.5896 -15.7314
I -21.6829 31.4303 -3.23915
I -28.7892 31.4492 -9.52988
I -25.1181 28.6629 -9.48604
I -21.6628 31.3996 -9.42062
I -22.0857 27.8882 -6.30116
I -27.9691 28.1422 -6.31258
I -24.8468 31.1394 5.49104e-16
I -24.6471 31.0024 6.33034
Cs -25.2186 25.216 4.60981e-15
Pb -28.2641 28.3309 -3.16562
Pb -28.2641 28.3309 3.16562
I -28.8781 31.4892 -3.12279
I -25.1612 28.7438 -3.12206
I -21.6628 31.3996 9.42062
I -28.8781 31.4892 3.12279
I -25.1612 28.7438 3.12206
I -21.6829 31.4303 3.23915
I -22.0857 27.8882 6.30116
I -27.9691 28.1422 6.31258
I -24.8225 31.028 12.6336
I -24.5329 30.8366 18.9418
Cs -25.1307 25.0925 12.5798
Pb -28.2255 28.2847 9.45625
Pb -28.1448 28.2134 15.7574
I -28.7892 31.4492 9.52988
I -25.1181 28.6629 9.48604
I -21.5134 31.1767 21.9147
I -28.6267 31.3973 15.6854
I -25.0403 28.5896 15.7314
I -21.5697 31.3096 15.8905
I -21.8883 27.7141 18.8825
I -27.8355 27.9738 18.8855
I -24.8167 30.7558 25.1782
I -25.0643 30.7496 30.905
Cs -24.9653 24.9057 25.2695
Pb -28.0559 28.113 22.0042
Pb -28.2327 28.2124 28.346
I -28.3308 31.3383 21.9875
I -24.9459 28.4226 22.0261
I -27.8096 31.3889 27.9153
I -25.016 27.9709 28.1775
I -21.9391 31.3704 28.2313
I -21.8939 28.1126 31.5269
I -27.8125 27.7701 31.5482
I -18.794 30.4727 -24.9077
I -18.9294 30.593 -12.6209
I -19.0209 30.6674 1.88823e-15
I -18.9294 30.593 12.6209
I -18.794 30.4727 24.9077
I -30.744 12.6223 -30.7685
I -30.6743 18.8245 -30.9884
I -27.9177 12.6441 -28.0781
I -31.3386 15.8277 -28.2876
I -28.0616 9.61048 -31.4831
I -30.3845 12.5826 -24.8007
I -30.2332 12.5814 -18.8259
I -30.5462 6.50789 -25.1108
I -30.7626 18.384 -18.868
I -31.24 9.46644 -28.1508
I -27.3673 12.7695 -15.7801
I -31.1895 15.3324 -15.9785
I -31.0283 9.84141 -21.9605
I -27.2539 12.6337 -22.0031
I -31.0887 15.2517 -21.7949
I -27.9782 15.7707 -25.132
I -27.7324 9.4818 -18.823
I -30.5062 12.773 -12.5976
I -30.3904 12.7513 -6.30485
I -30.7131 7.02923 -12.5332
I -30.8242 18.5379 -6.31633
I -31.0426 10.0191 -15.5884
I -27.4483 12.8757 -3.26415
I -31.2878 15.4706 -3.38861
I -31.1106 10.0782 -9.62759
I -27.4471 12.8237 -9.31756
I -31.2637 15.47 -9.27437
I -28.1172 15.9268 -12.5758
I -27.9849 9.5795 -6.2758
I -30.5891 12.872 4.02978e-15
I -30.3904 12.7513 6.30485
I -30.7958 7.18097 4.26705e-15
I -30.8242 18.5379 6.31633
I -31.1319 10.1667 -2.97227
I -27.4471 12.8237 9.31756
I -31.2637 15.47 9.27437
I -31.1319 10.1667 2.97227
I -27.4483 12.8757 3.26415
I -31.2878 15.4706 3.38861
I -28.2005 16.0116 3.95959e-15
I -27.9849 9.5795 6.2758
I -30.5062 12.773 12.5976
I -30.2332 12.5814 18.8259
I -30.7131 7.02923 12.5332
I -30.7626 18.384 18.868
I -31.1106 10.0782 9.62759
I -27.2539 12.6337 22.0031
I -31.0887 15.2517 21.7949
I -31.0426 10.0191 15.5884
I -27.3673 12.7695 15.7801
I -31.1895 15.3324 15.9785
I -28.1172 15.9268 12.5758
I -27.7324 9.4818 18.823
I -30.3845 12.5826 24.8007
I -30.744 12.6223 30.7685
I -30.5462 6.50789 25.1108
I -30.6743 18.8245 30.9884
I -31.0283 9.84141 21.9605
I -31.24 9.46644 28.1508
I -27.9177 12.6441 28.0781
I -31.3386 15.8277 28.2876
I -27.9782 15.7707 25.132
I -28.0616 9.61048 31.4831
I -24.8714 18.7925 -30.9467
I -24.9068 24.9184 -30.9234
I -21.8642 18.831 -28.2739
I -25.0037 21.8966 -28.2781
I -22.0147 15.735 -31.5918
I -28.0486 15.6768 -31.5084
Cs -24.8748 18.8749 -25.3279
Cs -24.7552 18.7875 -18.8437
Cs -24.8462 12.6761 -25.3113
Cs -24.9369 24.8139 -18.8665
Pb -28.1373 15.7316 -28.2864
Pb -28.1581 21.9197 -28.3219
Pb -27.8905 15.7084 -21.9737
Pb -28.0547 21.8474 -22.0082
I -27.9262 18.8238 -28.2172
I -24.9789 15.745 -28.1831
I -21.2418 18.9235 -15.9565
I -25.0353 21.4161 -15.8378
I -28.48 18.7736 -22.0379
I -24.8221 16.4816 -22.2091
I -21.0522 18.7896 -21.9926
I -24.9208 21.2354 -22.0243
I -27.9083 21.8583 -25.1585
I -21.9345 21.8474 -25.2016
I -22.1 15.6816 -18.8647
I -27.5504 15.7619 -18.8561
Cs -25.2191 19.0904 -12.528
Cs -24.7993 18.8493 -6.29773
Cs -25.09 13.223 -12.5354
Cs -25.0583 24.9068 -6.30662
Pb -28.0343 15.8227 -15.7344
Pb -28.1718 21.9757 -15.7446
Pb -28.0971 15.8715 -9.40899
Pb -28.2486 22.0497 -9.43384
I -28.5242 18.8959 -15.6627
I -24.9175 16.4726 -15.4641
I -21.3678 19.0225 -3.44929
I -25.1411 21.5355 -3.35631
I -28.4968 18.9568 -9.51186
I -24.964 16.448 -9.66013
I -21.3693 18.9836 -9.12406
I -25.1056 21.5494 -9.23995
I -27.9069 22.0785 -12.5864
I -22.2627 21.9185 -12.559
I -22.2671 15.6843 -6.27125
I -27.6771 15.9539 -6.28852
Cs -25.3281 19.1781 6.73597e-15
Cs -24.7993 18.8493 6.29773
Cs -25.1784 13.3398 5.46199e-15
Cs -25.0583 24.9068 6.30662
Pb -28.1293 15.925 -3.16638
Pb -28.2732 22.0947 -3.15823
Pb -28.1293 15.925 3.16638
Pb -28.2732 22.0947 3.15823
I -28.5972 19.0066 -3.06
I -25.0021 16.5455 -2.88709
I -21.3693 18.9836 9.12406
I -25.1056 21.5494 9.23995
I -28.5972 19.0066 3.06
I -25.0021 16.5455 2.88709
I -21.3678 19.0225 3.44929
I -25.1411 21.5355 3.35631
I -27.9536 22.1872 5.87701e-15
I -22.3848 21.9886 3.74439e-15
I -22.2671 15.6843 6.27125
I -27.6771 15.9539 6.28852
Cs -25.2191 19.0904 12.528
Cs -24.7552 18.7875 18.8437
Cs -25.09 13.223 12.5354
Cs -24.9369 24.8139 18.8665
Pb -28.0971 15.8715 9.40899
Pb -28.2486 22.0497 9.43384
Pb -28.0343 15.8227 15.7344
Pb -28.1718 21.9757 15.7446
I -28.4968 18.9568 9.51186
I -24.964 16.448 9.66013
I -21.0522 18.7896 21.9926
I -24.9208 21.2354 22.0243
I -28.5242 18.8959 15.6627
I -24.9175 16.4726 15.4641
I -21.2418 18.9235 15.9565
I -25.0353 21.4161 15.8378
I -27.9069 22.0785 12.5864
I -22.2627 21.9185 12.559
I -22.1 15.6816 18.8647
I -27.5504 15.7619 18.8561
Cs -24.8748 18.8749 25.3279
I -24.8714 18.7925 30.9467
Cs -24.8462 12.6761 25.3113
I -24.9068 24.9184 30.9234
Pb -27.8905 15.7084 21.9737
Pb -28.0547 21.8474 22.0082
Pb -28.1373 15.7316 28.2864
Pb -28.1581 21.9197 28.3219
I -28.48 18.7736 22.0379
I -24.8221 16.4816 22.2091
I -27.9262 18.8238 28.2172
I -24.9789 15.745 28.1831
I -21.8642 18.831 28.2739
I -25.0037 21.8966 28.2781
I -27.9083 21.8583 25.1585
I -21.9345 21.8474 25.2016
I -22.0147 15.735 31.5918
I -28.0486 15.6768 31.5084
I -18.8381 24.8966 -30.9439
I -18.8292 30.7945 -30.8402
I -15.7452 24.9903 -28.334
I -18.8237 27.974 -28.1442
I -15.775 21.8722 -31.5776
I -21.8948 21.9525 -31.5945
Cs -18.8113 24.9297 -25.3432
Cs -18.6486 24.8468 -18.8233
Cs -18.8558 18.8126 -25.3882
I -18.7738 30.3939 -18.8597
Pb -21.9083 21.9231 -28.3931
Pb -21.9245 28.1732 -28.3111
Pb -21.8143 21.8332 -22.0251
Pb -21.8516 27.9701 -22.0028
I -21.8948 25.018 -28.2363
I -18.8211 21.9061 -28.194
I -15.2403 24.8971 -15.8871
I -18.8986 27.517 -15.7914
I -22.5722 24.8946 -22.1408
I -18.785 22.6513 -22.1697
I -15.0274 24.8349 -21.9482
I -18.7778 27.3765 -22.0355
I -21.8944 27.9415 -25.1514
I -15.7133 27.8343 -25.1466
I -16.0874 21.6386 -18.8628
I -21.8231 22.091 -18.8833
Cs -19.1998 25.1768 -12.5539
Cs -18.6775 24.9545 -6.28618
Cs -19.1522 19.4268 -12.5328
I -18.9403 30.573 -6.30673
Pb -21.9587 21.9592 -15.7324
Pb -21.957 28.1358 -15.7581
Pb -22.0186 22.0351 -9.39086
Pb -22.0272 28.22 -9.43216
I -22.5793 25.0319 -15.5886
I -18.9096 22.5973 -15.4697
I -15.3608 24.993 -3.42442
I -19.0163 27.6176 -3.24841
I -22.6133 25.113 -9.582
I -18.9607 22.6006 -9.67012
I -15.3552 24.9648 -9.14881
I -18.9688 27.6058 -9.34886
I -22.0211 28.0961 -12.5988
I -16.022 27.7673 -12.5645
I -16.3383 21.6377 -6.26697
I -21.8556 22.3648 -6.27858
Cs -19.3262 25.272 1.4453e-15
Cs -18.6775 24.9545 6.28618
Cs -19.2442 19.5373 1.32974e-15
I -18.9403 30.573 6.30673
Pb -22.0601 22.0698 -3.16209
Pb -22.0747 28.2511 -3.171
Pb -22.0601 22.0698 3.16209
Pb -22.0747 28.2511 3.171
I -22.6936 25.1493 -2.99534
I -19.0016 22.6705 -2.85969
I -15.3552 24.9648 9.14881
I -18.9688 27.6058 9.34886
I -22.6936 25.1493 2.99534
I -19.0016 22.6705 2.85969
I -15.3608 24.993 3.42442
I -19.0163 27.6176 3.24841
I -22.1087 28.1793 4.74007e-15
I -16.133 27.8166 3.51154e-15
I -16.3383 21.6377 6.26697
I -21.8556 22.3648 6.27858
Cs -19.1998 25.1768 12.5539
Cs -18.6486 24.8468 18.8233
Cs -19.1522 19.4268 12.5328
I -18.7738 30.3939 18.8597
Pb -22.0186 22.0351 9.39086
Pb -22.0272 28.22 9.43216
Pb -21.9587 21.9592 15.7324
Pb -21.957 28.1358 15.7581
I -22.6133 25.113 9.582
I -18.9607 22.6006 9.67012
I -15.0274 24.8349 21.9482
I -18.7778 27.3765 22.0355
I -22.5793 25.0319 15.5886
I -18.9096 22.5973 15.4697
I -15.2403 24.8971 15.8871
I -18.8986 27.517 15.7914
I -22.0211 28.0961 12.5988
I -16.022 27.7673 12.5645
I -16.0874 21.6386 18.8628
I -21.8231 22.091 18.8833
Cs -18.8113 24.9297 25.3432
I -18.8381 24.8966 30.9439
Cs -18.8558 18.8126 25.3882
I -18.8292 30.7945 30.8402
Pb -21.8143 21.8332 22.0251
Pb -21.8516 27.9701 22.0028
Pb -21.9083 21.9231 28.3931
Pb -21.9245 28.1732 28.3111
I -22.5722 24.8946 22.1408
I -18.785 22.6513 22.1697
I -21.8948 25.018 28.2363
I -18.8211 21.9061 28.194
I -15.7452 24.9903 28.334
I -18.8237 27.974 28.1442
I -21.8944 27.9415 25.1514
I -15.7133 27.8343 25.1466
I -15.775 21.8722 31.5776
I -21.8948 21.9525 31.5945
I -12.628 30.6511 -30.9431
I -9.64611 31.3 -28.2381
I -9.48703 28.0153 -31.4605
I -15.7881 28.1229 -31.5382
I -12.7056 30.6759 -25.2013
I -12.3054 30.6131 -18.783
Cs -12.7102 24.8507 -25.2834
Pb -15.7309 28.1372 -28.3075
Pb -15.6891 27.9542 -21.9858
I -15.6717 31.3289 -28.2301
I -12.6439 27.8886 -28.1857
I -9.18939 31.06 -15.9472
I -16.0992 31.1609 -22.0361
I -12.6149 28.4007 -22.0241
I -9.09554 31.0148 -21.7235
I -9.62775 27.4377 -18.814
I -15.6503 27.893 -18.8599
I -13.1499 30.8762 -12.5509
I -12.3827 30.6484 -6.28897
Cs -12.9686 25.1709 -12.5198
Pb -15.819 28.0303 -15.7163
Pb -15.884 28.1103 -9.41629
I -16.2135 31.2098 -15.6066
I -12.7441 28.3707 -15.5594
I -9.28788 31.1128 -3.39334
I -16.2669 31.287 -9.65192
I -12.7957 28.3733 -9.54973
I -9.27385 31.0996 -9.21805
I -9.81536 27.4907 -6.27293
I -15.7576 28.1795 -6.28592
I -13.2872 30.9589 7.40048e-16
I -12.3827 30.6484 6.28897
Cs -13.0538 25.2821 6.79761e-16
Pb -15.93 28.1308 -3.15132
Pb -15.93 28.1308 3.15132
I -16.3471 31.3098 -2.96444
I -12.8448 28.4442 -2.98761
I -9.27385 31.0996 9.21805
I -16.3471 31.3098 2.96444
I -12.8448 28.4442 2.98761
I -9.28788 31.1128 3.39334
I -9.81536 27.4907 6.27293
I -15.7576 28.1795 6.28592
I -13.1499 30.8762 12.5509
I -12.3054 30.6131 18.783
Cs -12.9686 25.1709 12.5198
Pb -15.884 28.1103 9.41629
Pb -15.819 28.0303 15.7163
I -16.2669 31.287 9.65192
I -12.7957 28.3733 9.54973
I -9.09554 31.0148 21.7235
I -16.2135 31.2098 15.6066
I -12.7441 28.3707 15.5594
I -9.18939 31.06 15.9472
I -9.62775 27.4377 18.814
I -15.6503 27.893 18.8599
I -12.7056 30.6759 25.2013
I -12.628 30.6511 30.9431
Cs -12.7102 24.8507 25.2834
Pb -15.6891 27.9542 21.9858
Pb -15.7309 28.1372 28.3075
I -16.0992 31.1609 22.0361
I -12.6149 28.4007 22.0241
I -15.6717 31.3289 28.2301
I -12.6439 27.8886 28.1857
I -9.64611 31.3 28.2381
I -9.48703 28.0153 31.4605
I -15.7881 28.1229 31.5382
I -6.41347 30.3309 -24.7197
I -6.60837 30.3986 -12.5592
I -6.69988 30.4583 9.04271e-15
I -6.60837 30.3986 12.5592
I -6.41347 30.3309 24.7197
I -30.5707 0.256823 -30.6645
I -30.5629 6.43275 -30.8646
I -27.7268 0.297731 -27.9932
I -31.1674 3.43724 -28.1586
I -27.8852 -2.75133 -31.3975
I -30.1849 0.253198 -24.6984
I -29.9674 0.295108 -18.7567
I -30.3321 -5.82495 -25.0011
I -30.4391 6.21909 -18.746
I -31.0465 -2.89297 -28.0456
I -27.0903 0.476695 -15.7361
I -30.8998 3.05662 -15.9374
I -30.7936 -2.49005 -21.8428
I -27.0253 0.31715 -21.9205
I -30.8644 2.96171 -21.7221
I -27.7787 3.42753 -25.0479
I -27.4571 -2.81103 -18.7566
I -30.2449 0.454428 -12.5526
I -30.0395 0.434051 -6.27464
I -30.3946 -5.29344 -12.4842
I -30.4639 6.25709 -6.27873
I -30.7643 -2.3437 -15.5543
I -27.0996 0.575489 -3.2671
I -30.9375 3.13859 -3.39491
I -30.7952 -2.26439 -9.57396
I -27.1045 0.524744 -9.26907
I -30.9273 3.12279 -9.20268
I -27.8195 3.56186 -12.5262
I -27.6366 -2.74138 -6.25164
I -30.2985 0.549887 2.90346e-15
I -30.0395 0.434051 6.27464
I -30.4516 -5.1421 -1.77455e-15
I -30.4639 6.25709 6.27873
I -30.8029 -2.1863 -2.97546
I -27.1045 0.524744 9.26907
I -30.9273 3.12279 9.20268
I -30.8029 -2.1863 2.97546
I -27.0996 0.575489 3.2671
I -30.9375 3.13859 3.39491
I -27.8621 3.63388 5.70283e-17
I -27.6366 -2.74138 6.25164
I -30.2449 0.454428 12.5526
I -29.9674 0.295108 18.7567
I -30.3946 -5.29344 12.4842
I -30.4391 6.21909 18.746
I -30.7952 -2.26439 9.57396
I -27.0253 0.31715 21.9205
I -30.8644 2.96171 21.7221
I -30.7643 -2.3437 15.5543
I -27.0903 0.476695 15.7361
I -30.8998 3.05662 15.9374
I -27.8195 3.56186 12.5262
I -27.4571 -2.81103 18.7566
I -30.1849 0.253198 24.6984
I -30.5707 0.256823 30.6645
I -30.3321 -5.82495 25.0011
I -30.5629 6.43275 30.8646
I -30.7936 -2.49005 21.8428
I -31.0465 -2.89297 28.0456
I -27.7268 0.297731 27.9932
I -31.1674 3.43724 28.1586
I -27.7787 3.42753 25.0479
I -27.8852 -2.75133 31.3975
I -24.7193 6.43179 -30.8842
I -24.8511 12.678 -30.9044
I -21.7295 6.49672 -28.1989
I -24.9009 9.58467 -28.3026
I -21.8652 3.38615 -31.5244
I -27.9048 3.32136 -31.4196
Cs -24.7365 6.55962 -25.2298
Cs -24.4477 6.43291 -18.796
Cs -24.6385 0.371378 -25.2253
Cs -24.7039 12.47 -18.7923
Pb -27.9636 3.38074 -28.1975
Pb -28.0476 9.55223 -28.2527
Pb -27.6702 3.38824 -21.8912
Pb -27.8112 9.53873 -21.9416
I -27.7788 6.46986 -28.1312
I -24.805 3.40459 -28.1057
I -20.9319 6.69528 -16.0009
I -24.7211 9.10551 -15.8881
I -28.2022 6.45386 -21.9867
I -24.5881 4.10716 -22.1518
I -20.8721 6.53151 -21.8725
I -24.6894 8.89916 -21.8958
I -27.7162 9.54106 -25.0965
I -21.8716 9.52786 -25.1469
I -21.8064 3.34913 -18.8149
I -27.2853 3.48131 -18.7861
Cs -25.0189 6.84211 -12.5096
Cs -24.4172 6.49942 -6.27292
Cs -24.772 0.91803 -12.5073
Cs -24.7911 12.5025 -6.28051
Pb -27.7429 3.5338 -15.6702
Pb -27.8538 9.6866 -15.6824
Pb -27.7647 3.57548 -9.37346
Pb -27.926 9.73922 -9.40333
I -28.1809 6.60578 -15.5161
I -24.6082 4.15862 -15.3974
I -20.9944 6.779 -3.51196
I -24.8059 9.21443 -3.42638
I -28.1889 6.64998 -9.55466
I -24.6223 4.16882 -9.66292
I -20.9968 6.74197 -9.04539
I -24.7785 9.20956 -9.12834
I -27.5902 9.92065 -12.5437
I -22.0043 9.55468 -12.5316
I -21.8847 3.37058 -6.26027
I -27.312 3.67045 -6.26495
Cs -25.1273 6.92979 3.69212e-16
Cs -24.4172 6.49942 6.27292
Cs -24.822 1.02547 1.33789e-15
Cs -24.7911 12.5025 6.28051
Pb -27.7825 3.62925 -3.15211
Pb -27.9457 9.7909 -3.14342
Pb -27.7825 3.62925 3.15211
Pb -27.9457 9.7909 3.14342
I -28.2598 6.70251 -2.96335
I -24.6437 4.25356 -2.84951
I -20.9968 6.74197 9.04539
I -24.7785 9.20956 9.12834
I -28.2598 6.70251 2.96335
I -24.6437 4.25356 2.84951
I -20.9944 6.779 3.51196
I -24.8059 9.21443 3.42638
I -27.6418 10.0345 3.88581e-15
I -22.0799 9.5727 1.48609e-16
I -21.8847 3.37058 6.26027
I -27.312 3.67045 6.26495
Cs -25.0189 6.84211 12.5096
Cs -24.4477 6.43291 18.796
Cs -24.772 0.91803 12.5073
Cs -24.7039 12.47 18.7923
Pb -27.7647 3.57548 9.37346
Pb -27.926 9.73922 9.40333
Pb -27.7429 3.5338 15.6702
Pb -27.8538 9.6866 15.6824
I -28.1889 6.64998 9.55466
I -24.6223 4.16882 9.66292
I -20.8721 6.53151 21.8725
I -24.6894 8.89916 21.8958
I -28.1809 6.60578 15.5161
I -24.6082 4.15862 15.3974
I -20.9319 6.69528 16.0009
I -24.7211 9.10551 15.8881
I -27.5902 9.92065 12.5437
I -22.0043 9.55468 12.5316
I -21.8064 3.34913 18.8149
I -27.2853 3.48131 18.7861
Cs -24.7365 6.55962 25.2298
I -24.7193 6.43179 30.8842
Cs -24.6385 0.371378 25.2253
I -24.8511 12.678 30.9044
Pb -27.6702 3.38824 21.8912
Pb -27.8112 9.53873 21.9416
Pb -27.9636 3.38074 28.1975
Pb -28.0476 9.55223 28.2527
I -28.2022 6.45386 21.9867
I -24.5881 4.10716 22.1518
I -27.7788 6.46986 28.1312
I -24.805 3.40459 28.1057
I -21.7295 6.49672 28.1989
I -24.9009 9.58467 28.3026
I -27.7162 9.54106 25.0965
I -21.8716 9.52786 25.1469
I -21.8652 3.38615 31.5244
I -27.9048 3.32136 31.4196
I -18.7473 12.5595 -30.9354
I -18.7377 18.8314 -30.953
I -15.6486 12.6375 -28.3056
I -18.7913 15.7192 -28.3495
I -15.7895 9.50303 -31.5449
I -21.7805 9.58641 -31.5422
Cs -18.8001 12.7499 -25.3394
Cs -18.1575 12.4217 -18.8599
Cs -18.7153 6.56186 -25.3034
Cs -18.6374 18.3888 -18.8658
Pb -21.7962 9.57881 -28.3436
Pb -21.8824 15.7426 -28.3916
Pb -21.614 9.61706 -21.9717
Pb -21.7601 15.7041 -22.0065
I -21.8465 12.6623 -28.1739
I -18.712 9.60533 -28.0745
I -14.9115 12.6718 -16.083
I -18.7923 15.0772 -16.0569
I -22.5278 12.6582 -22.1695
I -18.5665 10.3224 -22.2627
I -14.8408 12.5864 -21.779
I -18.7045 14.9281 -21.8421
I -21.7199 15.7956 -25.191
I -15.8409 15.5537 -25.1671
I -15.8166 9.21326 -18.8482
I -21.4537 9.98966 -18.84
Cs -19.3268 13.0426 -12.5405
Cs -18.149 12.4893 -6.27186
Cs -18.8393 7.20528 -12.5357
Cs -18.7036 18.3848 -6.27684
Pb -21.6557 9.7515 -15.693
Pb -21.8302 15.8528 -15.7127
Pb -21.6928 9.79394 -9.37202
Pb -21.8708 15.8943 -9.38993
I -22.4632 12.7956 -15.3955
I -18.5903 10.3923 -15.3428
I -14.9681 12.7294 -3.53492
I -18.863 15.1737 -3.51819
I -22.4503 12.8336 -9.72294
I -18.6085 10.383 -9.76094
I -14.9572 12.7023 -9.0331
I -18.826 15.1637 -9.04395
I -21.6793 16.2554 -12.5497
I -16.1159 15.4639 -12.555
I -15.8908 9.25272 -6.27411
I -21.4465 10.2367 -6.26337
Cs -19.4156 13.1069 1.93597e-15
Cs -18.149 12.4893 6.27186
Cs -18.8852 7.27539 -1.88568e-15
Cs -18.7036 18.3848 6.27684
Pb -21.7262 9.83032 -3.14973
Pb -21.9095 15.9356 -3.14956
Pb -21.7262 9.83032 3.14973
Pb -21.9095 15.9356 3.14956
I -22.5208 12.873 -2.79921
I -18.637 10.4344 -2.75942
I -14.9572 12.7023 9.0331
I -18.826 15.1637 9.04395
I -22.5208 12.873 2.79921
I -18.637 10.4344 2.75942
I -14.9681 12.7294 3.53492
I -18.863 15.1737 3.51819
I -21.7218 16.3512 3.63469e-15
I -16.1774 15.4637 1.20184e-15
I -15.8908 9.25272 6.27411
I -21.4465 10.2367 6.26337
Cs -19.3268 13.0426 12.5405
Cs -18.1575 12.4217 18.8599
Cs -18.8393 7.20528 12.5357
Cs -18.6374 18.3888 18.8658
Pb -21.6928 9.79394 9.37202
Pb -21.8708 15.8943 9.38993
Pb -21.6557 9.7515 15.693
Pb -21.8302 15.8528 15.7127
I -22.4503 12.8336 9.72294
I -18.6085 10.383 9.76094
I -14.8408 12.5864 21.779
I -18.7045 14.9281 21.8421
I -22.4632 12.7956 15.3955
I -18.5903 10.3923 15.3428
I -14.9115 12.6718 16.083
I -18.7923 15.0772 16.0569
I -21.6793 16.2554 12.5497
I -16.1159 15.4639 12.555
I -15.8166 9.21326 18.8482
I -21.4537 9.98966 18.84
Cs -18.8001 12.7499 25.3394
I -18.7473 12.5595 30.9354
Cs -18.7153 6.56186 25.3034
I -18.7377 18.8314 30.953
Pb -21.614 9.61706 21.9717
Pb -21.7601 15.7041 22.0065
Pb -21.7962 9.57881 28.3436
Pb -21.8824 15.7426 28.3916
I -22.5278 12.6582 22.1695
I -18.5665 10.3224 22.2627
I -21.8465 12.6623 28.1739
I -18.712 9.60533 28.0745
I -15.6486 12.6375 28.3056
I -18.7913 15.7192 28.3495
I -21.7199 15.7956 25.191
I -15.8409 15.5537 25.1671
I -15.7895 9.50303 31.5449
I -21.7805 9.58641 31.5422
I -12.6585 18.7114 -30.9072
I -12.5888 24.8296 -30.9271
I -9.53889 18.7514 -28.3019
I -12.6533 21.8406 -28.2482
I -9.6672 15.647 -31.5427
I -15.6359 15.8281 -31.5645
Cs -12.7005 18.8471 -25.3378
Cs -12.174 18.4961 -18.8751
Cs -12.683 12.7096 -25.2929
Cs -12.5901 24.5959 -18.8195
Pb -15.6982 15.7197 -28.3684
Pb -15.7365 21.8888 -28.3777
Pb -15.6115 15.6609 -22.001
Pb -15.745 21.7525 -22.0016
I -15.7511 18.8039 -28.133
I -12.6219 15.7415 -28.0632
I -8.95659 18.6414 -16.0515
I -12.8195 21.0981 -16
I -16.4874 18.708 -22.2566
I -12.5508 16.3715 -22.2965
I -8.8001 18.6148 -21.7967
I -12.6699 21.004 -21.9066
I -15.6712 21.9637 -25.1807
I -9.65866 21.6567 -25.1514
I -9.8552 15.2562 -18.8533
I -15.4098 16.0099 -18.8598
Cs -13.3461 19.0262 -12.5414
Cs -12.1902 18.5021 -6.27569
Cs -12.8767 13.2028 -12.5629
Cs -12.6455 24.5867 -6.28055
Pb -15.7178 15.7161 -15.7105
Pb -15.8629 21.8249 -15.7142
Pb -15.7412 15.7442 -9.40197
Pb -15.9123 21.8752 -9.37473
I -16.528 18.7682 -15.3718
I -12.6483 16.3841 -15.3476
I -9.03949 18.6729 -3.51083
I -12.9063 21.1816 -3.49928
I -16.5082 18.7997 -9.74341
I -12.6676 16.365 -9.78194
I -9.0249 18.6488 -9.04098
I -12.8672 21.1836 -9.06639
I -15.7348 22.1864 -12.5422
I -10.1542 21.4845 -12.5394
I -9.98252 15.2226 -6.27461
I -15.4256 16.1366 -6.27092
Cs -13.4267 19.087 3.10551e-15
Cs -12.1902 18.5021 6.27569
Cs -12.9152 13.253 -3.687e-16
Cs -12.6455 24.5867 6.28055
Pb -15.7771 15.7757 -3.13969
Pb -15.9506 21.9081 -3.15523
Pb -15.7771 15.7757 3.13969
Pb -15.9506 21.9081 3.15523
I -16.5756 18.8319 -2.7671
I -12.6977 16.4082 -2.74736
I -9.0249 18.6488 9.04098
I -12.8672 21.1836 9.06639
I -16.5756 18.8319 2.7671
I -12.6977 16.4082 2.74736
I -9.03949 18.6729 3.51083
I -12.9063 21.1816 3.49928
I -15.7598 22.2833 9.83433e-16
I -10.2313 21.4993 1.91876e-15
I -9.98252 15.2226 6.27461
I -15.4256 16.1366 6.27092
Cs -13.3461 19.0262 12.5414
Cs -12.174 18.4961 18.8751
Cs -12.8767 13.2028 12.5629
Cs -12.5901 24.5959 18.8195
Pb -15.7412 15.7442 9.40197
Pb -15.9123 21.8752 9.37473
Pb -15.7178 15.7161 15.7105
Pb -15.8629 21.8249 15.7142
I -16.5082 18.7997 9.74341
I -12.6676 16.365 9.78194
I -8.8001 18.6148 21.7967
I -12.6699 21.004 21.9066
I -16.528 18.7682 15.3718
I -12.6483 16.3841 15.3476
I -8.95659 18.6414 16.0515
I -12.8195 21.0981 16
I -15.7348 22.1864 12.5422
I -10.1542 21.4845 12.5394
I -9.8552 15.2562 18.8533
I -15.4098 16.0099 18.8598
Cs -12.7005 18.8471 25.3378
I -12.6585 18.7114 30.9072
Cs -12.683 12.7096 25.2929
I -12.5888 24.8296 30.9271
Pb -15.6115 15.6609 22.001
Pb -15.745 21.7525 22.0016
Pb -15.6982 15.7197 28.3684
Pb -15.7365 21.8888 28.3777
I -16.4874 18.708 22.2566
I -12.5508 16.3715 22.2965
I -15.7511 18.8039 28.133
I -12.6219 15.7415 28.0632
I -9.53889 18.7514 28.3019
I -12.6533 21.8406 28.2482
I -15.6712 21.9637 25.1807
I -9.65866 21.6567 25.1514
I -9.6672 15.647 31.5427
I -15.6359 15.8281 31.5645
I -6.49327 24.8103 -30.8487
I -6.43147 30.7026 -30.7086
I -3.40553 24.8522 -28.2387
I -6.46487 27.8763 -28.02
I -3.43446 21.7727 -31.5119
I -9.52482 21.9775 -31.548
Cs -6.51599 24.7934 -25.2571
Cs -6.33164 24.5863 -18.7647
Cs -6.57782 18.751 -25.297
I -6.43158 30.1197 -18.7713
Pb -9.56709 21.8406 -28.3482
Pb -9.55126 28.0977 -28.2374
Pb -9.5653 21.6726 -21.9772
Pb -9.55131 27.8238 -21.9247
I -9.56507 24.9388 -28.1357
I -6.48896 21.8064 -28.1112
I -2.9859 24.5929 -15.8537
I -6.62053 27.2409 -15.7562
I -10.2866 24.7463 -22.1803
I -6.50355 22.4141 -22.1602
I -2.74905 24.6074 -21.8731
I -6.47513 27.1796 -21.9501
I -9.60115 27.9352 -25.0852
I -3.36872 27.6724 -25.0444
I -3.83754 21.3515 -18.8162
I -9.49704 21.9689 -18.836
Cs -7.05887 24.9405 -12.5192
Cs -6.36051 24.6098 -6.26868
Cs -6.91514 19.1653 -12.5346
I -6.57982 30.212 -6.28209
Pb -9.74322 21.6794 -15.6886
Pb -9.67371 27.903 -15.6939
Pb -9.77711 21.6972 -9.38889
Pb -9.72013 27.9364 -9.38578
I -10.3135 24.7743 -15.4243
I -6.67198 22.3001 -15.3738
I -3.08242 24.6342 -3.4115
I -6.72117 27.2686 -3.26944
I -10.314 24.7961 -9.66236
I -6.70754 22.278 -9.72028
I -3.07295 24.6182 -9.11979
I -6.67232 27.2736 -9.28203
I -9.72519 27.9779 -12.5436
I -3.77342 27.4596 -12.515
I -4.09064 21.2735 -6.25679
I -9.51094 22.0626 -6.26542
Cs -7.16678 24.9978 1.42479e-16
Cs -6.36051 24.6098 6.26868
Cs -6.97284 19.2182 -4.90697e-16
I -6.57982 30.212 6.28209
Pb -9.81696 21.7229 -3.14087
Pb -9.77049 27.9565 -3.15702
Pb -9.81696 21.7229 3.14087
Pb -9.77049 27.9565 3.15702
I -10.3981 24.8203 -2.86166
I -6.74409 22.3255 -2.7928
I -3.07295 24.6182 9.11979
I -6.67232 27.2736 9.28203
I -10.3981 24.8203 2.86166
I -6.74409 22.3255 2.7928
I -3.08242 24.6342 3.4115
I -6.72117 27.2686 3.26944
I -9.79762 28.0317 3.00871e-15
I -3.88194 27.4844 2.37066e-15
I -4.09064 21.2735 6.25679
I -9.51094 22.0626 6.26542
Cs -7.05887 24.9405 12.5192
Cs -6.33164 24.5863 18.7647
Cs -6.91514 19.1653 12.5346
I -6.43158 30.1197 18.7713
Pb -9.77711 21.6972 9.38889
Pb -9.72013 27.9364 9.38578
Pb -9.74322 21.6794 15.6886
Pb -9.67371 27.903 15.6939
I -10.314 24.7961 9.66236
I -6.70754 22.278 9.72028
I -2.74905 24.6074 21.8731
I -6.47513 27.1796 21.9501
I -10.3135 24.7743 15.4243
I -6.67198 22.3001 15.3738
I -2.9859 24.5929 15.8537
I -6.62053 27.2409 15.7562
I -9.72519 27.9779 12.5436
I -3.77342 27.4596 12.515
I -3.83754 21.3515 18.8162
I -9.49704 21.9689 18.836
Cs -6.51599 24.7934 25.2571
I -6.49327 24.8103 30.8487
Cs -6.57782 18.751 25.297
I -6.43147 30.7026 30.7086
Pb -9.5653 21.6726 21.9772
Pb -9.55131 27.8238 21.9247
Pb -9.56709 21.8406 28.3482
Pb -9.55126 28.0977 28.2374
I -10.2866 24.7463 22.1803
I -6.50355 22.4141 22.1602
I -9.56507 24.9388 28.1357
I -6.48896 21.8064 28.1112
I -3.40553 24.8522 28.2387
I -6.46487 27.8763 28.02
I -9.60115 27.9352 25.0852
I -3.36872 27.6724 25.0444
I -3.43446 21.7727 31.5119
I -9.52482 21.9775 31.548
I -0.243735 30.522 -30.8036
I 2.75773 31.108 -28.0862
I 2.86239 27.868 -31.3738
I -3.42093 28.0139 -31.428
I -0.318667 30.4825 -25.0484
I -0.120472 30.3369 -18.6773
Cs -0.391681 24.6738 -25.1909
Pb -3.37421 28.0006 -28.1986
Pb -3.38028 27.7318 -21.8934
I -3.27136 31.1939 -28.0973
I -0.292023 27.7278 -28.0816
I 3.07114 30.7924 -15.882
I -3.67036 30.9495 -21.8675
I -0.295393 28.1209 -21.9392
I 3.19093 30.7815 -21.6787
I 2.66398 27.1917 -18.7411
I -3.32844 27.6116 -18.7805
I -0.863144 30.5716 -12.4927
I -0.134583 30.3127 -6.25825
Cs -0.698439 24.8748 -12.4895
Pb -3.54441 27.7311 -15.6456
Pb -3.59344 27.7706 -9.38092
I -3.83512 30.9222 -15.5577
I -0.462231 28.0298 -15.4735
I 3.00238 30.7913 -3.37865
I -3.89907 30.9586 -9.58113
I -0.501051 28.0235 -9.53107
I 3.02078 30.7907 -9.17667
I 2.48283 27.1679 -6.24914
I -3.41141 27.8028 -6.26005
I -1.00545 30.6251 6.24646e-15
I -0.134583 30.3127 6.25825
Cs -0.785004 24.9542 3.16818e-15
Pb -3.64285 27.7797 -3.13488
Pb -3.64285 27.7797 3.13488
I -3.97936 30.9689 -2.97705
I -0.551808 28.0765 -2.95791
I 3.02078 30.7907 9.17667
I -3.97936 30.9689 2.97705
I -0.551808 28.0765 2.95791
I 3.00238 30.7913 3.37865
I 2.48283 27.1679 6.24914
I -3.41141 27.8028 6.26005
I -0.863144 30.5716 12.4927
I -0.120472 30.3369 18.6773
Cs -0.698439 24.8748 12.4895
Pb -3.59344 27.7706 9.38092
Pb -3.54441 27.7311 15.6456
I -3.89907 30.9586 9.58113
I -0.501051 28.0235 9.53107
I 3.19093 30.7815 21.6787
I -3.83512 30.9222 15.5577
I -0.462231 28.0298 15.4735
I 3.07114 30.7924 15.882
I 2.66398 27.1917 18.7411
I -3.32844 27.6116 18.7805
I -0.318667 30.4825 25.0484
I -0.243735 30.522 30.8036
Cs -0.391681 24.6738 25.1909
Pb -3.38028 27.7318 21.8934
Pb -3.37421 28.0006 28.1986
I -3.67036 30.9495 21.8675
I -0.295393 28.1209 21.9392
I -3.27136 31.1939 28.0973
I -0.292023 27.7278 28.0816
I 2.75773 31.108 28.0862
I 2.86239 27.868 31.3738
I -3.42093 28.0139 31.428
I 5.89947 30.1162 -24.644
I 5.71277 30.1189 -12.5283
I 5.61713 30.1444 1.09709e-15
I 5.71277 30.1189 12.5283
I 5.89947 30.1162 24.644
I -30.4103 -12.0791 -30.5398
I -30.3908 -5.92123 -30.7544
I -27.5315 -12.0333 -27.9013
I -30.9692 -8.91078 -28.0221
I -27.7744 -15.1268 -31.2711
I -29.9796 -12.0559 -24.6061
I -29.7496 -11.9707 -18.6561
I -30.1858 -18.0703 -24.8078
I -30.1906 -5.98989 -18.6315
I -30.882 -15.1718 -27.8516
I -26.89 -11.8263 -15.63
I -30.6504 -9.19825 -15.8384
I -30.5783 -14.7794 -21.7101
I -26.7863 -11.9767 -21.8278
I -30.6345 -9.34283 -21.6444
I -27.5494 -8.89736 -24.9601
I -27.2243 -15.0572 -18.6558
I -29.9434 -11.8958 -12.4736
I -29.7413 -11.8678 -6.23407
I -30.0313 -17.6966 -12.4125
I -30.1456 -6.00839 -6.24259
I -30.5063 -14.7694 -15.482
I -26.8218 -11.7386 -3.22644
I -30.6282 -9.16139 -3.37057
I -30.486 -14.6682 -9.50009
I -26.8289 -11.7856 -9.24203
I -30.629 -9.18444 -9.14625
I -27.5649 -8.74754 -12.4697
I -27.3092 -15.0113 -6.21429
I -29.9439 -11.8262 1.51408e-15
I -29.7413 -11.8678 6.23407
I -30.023 -17.5939 8.91663e-16
I -30.1456 -6.00839 6.24259
I -30.468 -14.6353 -2.96124
I -26.8289 -11.7856 9.24203
I -30.629 -9.18444 9.14625
I -30.468 -14.6353 2.96124
I -26.8218 -11.7386 3.22644
I -30.6282 -9.16139 3.37057
I -27.575 -8.68525 -5.37731e-16
I -27.3092 -15.0113 6.21429
I -29.9434 -11.8958 12.4736
I -29.7496 -11.9707 18.6561
I -30.0313 -17.6966 12.4125
I -30.1906 -5.98989 18.6315
I -30.486 -14.6682 9.50009
I -26.7863 -11.9767 21.8278
I -30.6345 -9.34283 21.6444