63
 Atoms. Timestep: 110082
4 -6.11946 5.80436 0.164467
4 -5.48722 0.203275 -6.22376
3 -3.10774 -0.0843226 -3.03311
3 -6.26906 3.17685 -3.43563
3 -2.1964 -3.06211 -6.53843
4 -5.91388 -0.0249266 -0.089071
4 -6.01065 -0.138908 6.00909
4 -5.80826 -6.02423 -0.263372
3 -6.39727 -3.13584 -3.12606
3 -6.30846 -2.75825 2.85674
3 -2.94244 0.191018 3.18772
3 -6.67009 2.7954 2.91772
3 -3.39729 3.00261 0.0127858
3 -2.82282 -2.49121 6.5093
4 0.197643 6.24369 -5.69106
3 2.92088 6.52168 -2.842
3 2.81393 3.06119 -6.58953
3 -2.41957 2.83752 -6.59331
4 0.217298 5.86219 -0.13155
4 0.191094 6.13123 5.87932
1 -0.382844 0.11379 -0.0620134
2 -3.28477 3.3564 -3.23934
2 -3.34381 3.54029 3.10538
3 -3.0385 6.61562 -2.94138
3 0.0538449 3.07505 -3.10635
3 -3.04573 6.62516 2.91974
3 -0.28523 3.37223 3.03889
3 3.10117 6.56929 2.76544
3 2.62593 3.0788 6.61259
3 -3.22341 3.04815 6.22886
4 5.77316 5.54001 -0.159465
4 0.384736 -5.89797 -5.63862
4 0.213007 0.0738368 -5.43833
3 2.73693 -6.64697 -2.67945
3 0.0762274 -2.79838 -2.95088
4 -0.180096 -5.5947 0.0053476
4 -0.540948 -5.69887 6.19855
4 0.208944 0.254362 5.77751
2 -3.12693 -3.16158 -3.26121
2 -3.12053 -3.04027 3.38409
3 -2.68855 -6.81663 -2.99232
3 -2.8239 -6.09067 3.08203
3 2.18826 -6.76676 2.96895
3 0.0326951 -2.97903 3.09244
3 -3.16826 -3.00747 -0.146584
3 3.01571 -3.18497 0.0266812
4 5.94075 0.362176 -6.02887
3 6.4011 2.95977 -2.88532
3 2.98279 -3.01666 -6.18959
4 5.76999 0.16184 -0.148529
4 5.22158 -0.302664 5.72794
4 5.40462 -6.34962 0.123565
2 3.43951 -3.27935 -3.26426
2 3.31699 3.39366 -3.38778
2 3.05614 -3.62309 3.2689
2 2.97087 3.238 3.57038
3 3.3966 0.0276162 -3.06798
3 6.67517 -2.98473 -3.15781
3 2.8573 0.0518206 2.99923
3 6.35249 -3.11872 2.88232
3 6.5129 2.65472 3.07364
3 3.05369 2.94167 0.00956435
3 2.43693 -2.95132 6.79181
