191
 Atoms. Timestep: 10010194
3 -5.82007 8.86824 -5.93325
3 -5.33526 5.34664 -8.96741
4 -8.84168 7.90887 -3.07114
4 -8.17726 8.17843 2.68399
4 -8.3683 2.78551 -2.94884
3 -8.90795 5.52073 -6.06193
3 -5.60092 8.75202 6.14886
3 -8.95858 5.65099 -0.135409
3 -5.46877 9.01433 -0.265838
3 -5.55351 5.82873 2.68117
4 -8.63421 3.19136 7.62531
3 -8.80463 5.81469 5.20946
4 -3.01997 8.072 -2.90959
4 -3.02997 7.70581 8.47047
4 -8.71257 -2.89781 -8.0595
4 -8.23534 2.67824 -8.2539
3 -5.90687 -2.95298 -5.48875
3 -9.12237 -0.0180854 -5.53772
3 -6.00004 -5.50237 -8.61702
4 -8.17904 -2.85672 -2.41459
4 -8.36587 -2.70339 2.81684
4 -8.49441 -8.49742 -2.95831
4 -8.24881 2.82904 2.54251
3 -8.82185 -5.50212 -5.35228
3 -6.01023 -2.86574 5.67917
3 -9.03341 0.260411 5.58802
3 -8.78553 -5.89598 -0.295794
3 -5.43813 -2.61472 -0.130433
3 -8.73131 -0.0244695 0.162105
3 -5.9133 0.0329632 -2.86673
3 -5.97054 -5.54901 2.8947
4 -8.25551 -2.41871 8.33912
3 -8.97614 -5.51757 6.32435
3 -5.90415 0.324495 8.55738
4 -2.69571 2.66276 -8.21295
4 -2.78214 7.93443 -8.46589
3 0.238155 2.90173 -5.78546
3 -2.93723 5.51891 -5.65763
3 0.147848 0.14294 -9.10389
3 -6.00048 -0.347233 -8.62766
1 -2.93487 2.53128 -2.85731
1 -2.56894 2.99259 2.65307
1 -2.55765 -2.87774 -2.74993
4 -2.52421 8.25574 2.4316
2 -6.12746 -0.0544283 -5.71271
2 -5.82907 5.8031 -5.98846
2 -5.71421 0.201621 -0.00535647
2 -5.91625 5.97485 -0.197667
3 -5.80629 2.95488 -5.57314
3 -2.92873 0.0708224 -5.64529
3 0.155501 2.83904 6.19213
3 -2.77153 5.53498 5.62233
3 -5.77907 3.06799 -0.228653
3 -2.81916 0.351058 0.22339
3 0.180873 2.86974 -0.120703
3 -2.64428 5.61091 -0.223107
3 -5.75994 5.84921 -3.01152
3 0.11522 5.74662 -3.00372
3 0.189027 0.049754 2.99707
3 -5.95191 -0.0239235 2.89428
4 -2.94358 2.85922 8.15453
4 -3.27807 -2.76922 8.17873
2 -6.04407 0.0120711 5.68744
2 -5.60156 5.90349 5.98876
3 -5.66913 3.01421 5.44959
3 -2.96768 0.0437991 5.62843
3 -5.78622 4.76808 8.97198
3 0.107553 6.06908 9.03738
4 3.15218 8.87117 -7.89156
3 5.89904 9.20614 -5.30614
3 5.76422 6.39169 -8.85849
3 0.00892996 5.58038 -9.0132
4 2.76755 8.51145 -3.12487
4 2.81127 8.30325 2.91623
1 2.89427 3.01632 -2.99986
2 0.0325436 5.81136 -6.00186
2 0.0382129 5.97648 -0.189386
3 -0.112254 8.88452 -6.29935
3 3.0328 5.79798 -5.72368
3 5.77251 8.55133 5.37622
3 0.625747 8.89646 0.0440114
3 2.87774 5.76984 0.0418831
3 5.77301 9.02684 0.12964
3 5.5839 5.53607 2.93468
3 0.108141 5.58506 2.75563
4 3.13354 7.80115 8.14755
4 2.95612 2.47798 8.378
2 0.174092 5.62173 5.80791
3 0.0759577 8.73231 5.81469
3 2.9996 5.3034 5.55431
4 8.14984 8.58735 -2.74247
4 -8.49133 -7.98774 3.07385
4 -3.56116 -8.16303 -8.47392
4 -3.27104 -2.95446 -7.75033
3 -0.219087 -8.82781 -5.94266
3 -2.91567 -6.0101 -5.73941
4 -3.11785 -8.19488 -2.91081
4 -2.95369 -8.03985 2.84719
1 -2.71138 -2.87027 3.32168
2 -6.00539 -5.90739 -5.63284
2 -5.89971 -5.61841 0.15213
3 -5.84513 -9.20543 -5.44243
3 -0.17006 -8.79049 5.81025
3 -2.96466 -5.65834 5.87852
3 -5.89149 -8.85484 0.193066
3 -0.150658 -8.93733 -0.214268
3 -2.96362 -5.74439 -0.0858195
3 -5.65263 -5.83028 -2.71614
3 -0.0478378 -5.69929 -3.14004
4 -3.01023 -8.22134 8.37272
2 -5.98019 -5.84394 6.06267
3 -5.93401 -8.97709 5.52188
3 -5.56818 -5.6703 9.3141
3 -0.0306983 -6.11325 8.91358
4 2.84583 -2.88274 -8.39155
4 2.98416 2.7974 -8.49874
3 5.86185 -2.83914 -5.7487
3 2.96448 0.0797819 -5.90714
3 5.74834 -5.89762 -8.88197
3 0.0587966 -6.2802 -8.98687
1 2.83256 -2.5304 -2.97045
1 2.88485 -2.84315 3.00242
4 2.69486 -8.20944 -3.00474
1 2.97567 2.8918 2.81215
2 0.0210128 -5.80025 -6.10886
2 0.101241 0.02866 -6.0231
2 -0.0735855 -5.84126 0.0572216
2 -0.0593529 0.0319885 -0.0163305
3 0.242236 -2.82633 -5.70423
3 3.00467 -5.46728 -5.6778
3 5.7128 -3.11913 5.9422
3 3.03535 -0.306659 5.77294
3 -0.0919535 -2.87628 0.318967
3 2.92523 -5.43431 -0.2309
3 5.96064 -3.00956 0.0455293
3 2.88826 -0.247946 -0.0384381
3 0.072636 -0.141065 -2.85313
3 5.67313 0.22926 -2.99359
3 5.6167 -5.63242 2.91578
3 -0.112446 -5.79197 2.83334
4 2.67559 -3.05592 8.15784
4 2.79064 -7.86144 8.62707
2 -0.0671867 -5.84375 6.03255
2 -0.0641283 -0.0448862 5.90697
3 -0.00426513 -3.09368 5.76731
3 2.94708 -5.85699 5.60504
3 -0.188632 -0.566509 8.78503
3 6.22001 0.382086 8.59525
4 9.06677 3.72172 -8.26268
3 9.01532 5.73321 -5.02909
3 5.41348 -0.186873 -9.28901
4 8.24331 2.91303 -2.57322
4 8.20905 2.49987 2.79593
4 8.36367 -2.7111 -3.10577
4 8.2884 8.18891 2.53023
2 5.88155 0.216669 -6.06104
2 6.13045 6.07676 -5.77058
2 5.72692 -0.144915 -0.154506
2 5.72486 5.81021 0.0737256
3 6.14138 3.17273 -6.08045
3 9.06316 0.012567 -6.73571
3 8.98857 5.49661 5.31545
3 5.45572 2.84049 -0.0968152
3 8.73301 0.418986 -0.0380558
3 8.75564 5.28332 0.366091
3 5.89446 5.89062 -2.82255
3 5.89585 -0.128169 2.79998
4 8.84409 2.87777 7.83848
4 8.2653 -2.56965 8.79988
2 6.00426 -0.258491 5.75451
2 5.93489 5.55282 5.90299
3 5.80638 2.72657 5.72762
3 9.25724 -0.386023 5.63023
3 5.73602 5.14212 8.92345
4 2.91563 -8.28367 -7.96567
4 2.96526 -8.14976 2.36707
4 8.3245 -2.89035 -8.61525
3 8.97087 -5.45936 -5.3716
4 8.50264 -7.80946 -2.56104
4 8.17889 -8.23047 3.01166
4 8.19363 -2.99615 3.30684
2 6.01368 -5.81524 -5.83755
2 5.82784 -5.81385 0.0902971
3 5.72381 -8.8575 -5.16992
3 8.84408 -5.46309 6.03818
3 5.84485 -8.88793 0.085972
3 8.80626 -5.85034 0.387754
3 5.67408 -5.5881 -2.76774
2 5.80824 -6.17501 6.38952
3 5.40946 -9.15059 6.28904
3 5.38773 -5.25566 9.21541
