191
 Atoms. Timestep: 192
3 -5.43417 8.81099 -5.50841
3 -5.44462 5.47029 -8.82827
4 -8.11491 8.17541 -2.89881
4 -8.1204 8.19338 2.83192
4 -8.11928 2.82243 -2.81459
3 -8.77809 5.49437 -5.50122
3 -5.44467 8.84532 5.44263
3 -8.76605 5.76194 -0.0264698
3 -5.68996 8.81292 -0.0330864
3 -5.5913 5.64352 2.85938
4 -8.14713 2.92428 8.13419
3 -8.78858 5.5287 5.44982
4 -2.7619 8.13607 -2.82611
4 -2.83977 8.18831 8.12278
4 -8.15498 -2.85753 -8.15003
4 -8.1315 2.87317 -8.16798
3 -5.61796 -2.87699 -5.60797
3 -8.78402 0.0180373 -5.73453
3 -5.48949 -5.48066 -8.79398
4 -8.14221 -2.77337 -2.79707
4 -8.14757 -2.75583 2.79878
4 -8.18171 -8.12663 -2.84776
4 -8.12464 2.83998 2.78126
3 -8.82296 -5.45659 -5.46693
3 -5.62872 -2.84181 5.61512
3 -8.795 0.0539429 5.71746
3 -8.81298 -5.68996 0.00939054
3 -5.67127 -2.86142 0.00353423
3 -8.80576 0.0360566 -0.00855541
3 -5.65669 0.0141294 -2.89012
3 -5.63729 -5.57949 2.89452
4 -8.17061 -2.80641 8.15214
3 -8.83346 -5.42225 5.48411
3 -5.7344 0.0510039 8.78398
4 -2.77865 2.78386 -8.14493
4 -2.82414 8.1372 -8.17939
3 0.0172461 2.86685 -5.66851
3 -2.85402 5.60571 -5.63192
3 0.00844239 -0.0276089 -8.80579
3 -5.71755 -0.00411206 -8.79511
1 -2.81498 2.83199 -2.84091
1 -2.82041 2.84973 2.81769
1 -2.83817 -2.82656 -2.82319
4 -2.76727 8.15362 2.76974
2 -5.80174 0.00557115 -5.81297
2 -5.81675 5.8519 -5.87032
2 -5.83403 0.0238884 -0.00566817
2 -5.78351 5.83106 -0.023827
3 -5.59434 2.88776 -5.62602
3 -2.87918 -0.00593274 -5.66227
3 0.0063943 2.90234 5.65044
3 -2.86478 5.6409 5.59117
3 -5.64763 2.90777 -0.0145313
3 -2.89417 0.0118507 -0.00281189
3 0.0118594 2.89416 -0.00906273
3 -2.86142 5.67124 -0.0205245
3 -5.58577 5.62544 -2.90542
3 0.0259562 5.65038 -2.90234
3 -0.00277474 0.00907417 2.89418
3 -5.66222 0.0322177 2.87912
4 -2.79425 2.83486 8.12197
4 -2.81718 -2.76095 8.13949
2 -5.81287 0.0419867 5.80168
2 -5.82796 5.88856 5.82235
3 -5.6051 2.92295 5.59707
3 -2.89003 0.0295557 5.65667
3 -5.46151 5.52551 8.78334
3 0.0150364 5.75351 8.77161
4 2.90657 8.11373 -8.17382
3 5.51683 8.76615 -5.49777
3 5.50638 5.42545 -8.81763
3 0.0318901 5.69839 -8.80747
4 2.83393 8.11316 -2.82068
4 2.82856 8.1307 2.77517
1 2.84359 2.80882 -2.83541
2 0.0293642 5.78907 -5.82551
2 0.023906 5.83401 -0.0182685
3 0.0415064 8.77152 -5.75352
3 2.91076 5.58211 -5.62632
3 5.50633 8.80048 5.45326
3 0.0360832 8.80572 -0.0275741
3 2.9078 5.64762 -0.0149193
3 5.76199 8.76603 -0.0219601
3 5.63176 5.59756 2.87028
3 0.0204251 5.66847 2.8669
4 2.89094 8.16484 8.12834
4 2.80158 2.81195 8.12741
2 0.0182288 5.82549 5.78914
3 0.030527 8.80743 5.69847
3 2.9 5.61729 5.59678
4 8.1872 8.10866 -2.88297
4 -8.1872 -8.10866 2.88297
4 -2.89094 -8.16484 -8.12834
4 -2.80158 -2.81195 -8.12741
3 -0.030527 -8.80743 -5.69847
3 -2.9 -5.61729 -5.59678
4 -2.82856 -8.1307 -2.77517
4 -2.83393 -8.11316 2.82068
1 -2.84359 -2.80882 2.83541
2 -5.86466 -5.84068 -5.83371
2 -5.8311 -5.7835 0.0125426
3 -5.50633 -8.80048 -5.45326
3 -0.0415064 -8.77152 5.75352
3 -2.91076 -5.58211 5.62632
3 -5.76199 -8.76603 0.0219601
3 -0.0360832 -8.80572 0.0275741
3 -2.9078 -5.64762 0.0149193
3 -5.63176 -5.59756 -2.87028
3 -0.0204251 -5.66847 -2.8669
4 -2.90657 -8.11373 8.17382
2 -5.87587 -5.80402 5.85896
3 -5.51683 -8.76615 5.49777
3 -5.50638 -5.42545 8.81763
3 -0.0318901 -5.69839 8.80747
4 2.79425 -2.83486 -8.12197
4 2.81718 2.76095 -8.13949
3 5.6051 -2.92295 -5.59707
3 2.89003 -0.0295557 -5.65667
3 5.46151 -5.52551 -8.78334
3 -0.0150364 -5.75351 -8.77161
1 2.82041 -2.84973 -2.81769
1 2.81498 -2.83199 2.84091
4 2.76727 -8.15362 -2.76974
1 2.83817 2.82656 2.82319
2 -0.0182288 -5.82549 -5.78914
2 0.00559329 -0.0182916 -5.83405
2 -0.023906 -5.83401 0.0182685
2 -3.9324e-16 -4.76518e-16 1.35704e-15
3 -0.0063943 -2.90234 -5.65044
3 2.86478 -5.6409 -5.59117
3 5.59434 -2.88776 5.62602
3 2.87918 0.00593274 5.66227
3 -0.0118594 -2.89416 0.00906273
3 2.86142 -5.67124 0.0205245
3 5.64763 -2.90777 0.0145313
3 2.89417 -0.0118507 0.00281189
3 0.00277474 -0.00907417 -2.89418
3 5.66222 -0.0322177 -2.87912
3 5.58577 -5.62544 2.90542
3 -0.0259562 -5.65038 2.90234
4 2.77865 -2.78386 8.14493
4 2.82414 -8.1372 8.17939
2 -0.0293642 -5.78907 5.82551
2 -0.00559329 0.0182916 5.83405
3 -0.0172461 -2.86685 5.66851
3 2.85402 -5.60571 5.63192
3 -0.00844239 0.0276089 8.80579
3 5.71755 0.00411206 8.79511
4 8.17061 2.80641 -8.15214
3 8.83346 5.42225 -5.48411
3 5.7344 -0.0510039 -8.78398
4 8.14757 2.75583 -2.79878
4 8.14221 2.77337 2.79707
4 8.12464 -2.83998 -2.78126
4 8.18171 8.12663 2.84776
2 5.81287 -0.0419867 -5.80168
2 5.87587 5.80402 -5.85896
2 5.83403 -0.0238884 0.00566817
2 5.8311 5.7835 -0.0125426
3 5.62872 2.84181 -5.61512
3 8.795 -0.0539429 -5.71746
3 8.82296 5.45659 5.46693
3 5.67127 2.86142 -0.00353423
3 8.80576 -0.0360566 0.00855541
3 8.81298 5.68996 -0.00939054
3 5.63729 5.57949 -2.89452
3 5.65669 -0.0141294 2.89012
4 8.15498 2.85753 8.15003
4 8.1315 -2.87317 8.16798
2 5.80174 -0.00557115 5.81297
2 5.86466 5.84068 5.83371
3 5.61796 2.87699 5.60797
3 8.78402 -0.0180373 5.73453
3 5.48949 5.48066 8.79398
4 2.83977 -8.18831 -8.12278
4 2.7619 -8.13607 2.82611
4 8.14713 -2.92428 -8.13419
3 8.78858 -5.5287 -5.44982
4 8.1204 -8.19338 -2.83192
4 8.11491 -8.17541 2.89881
4 8.11928 -2.82243 2.81459
2 5.82796 -5.88856 -5.82235
2 5.78351 -5.83106 0.023827
3 5.44467 -8.84532 -5.44263
3 8.77809 -5.49437 5.50122
3 5.68996 -8.81292 0.0330864
3 8.76605 -5.76194 0.0264698
3 5.5913 -5.64352 -2.85938
2 5.81675 -5.8519 5.87032
3 5.43417 -8.81099 5.50841
3 5.44462 -5.47029 8.82827
