783
 Atoms. Timestep: 10010624
3 -10.7946 15.2881 -11.2222
3 -11.2905 11.5138 -14.7122
4 -13.5258 15.0975 -8.87089
4 -13.2928 14.2263 -2.93657
4 -14.4541 9.04442 -8.24786
3 -14.7997 11.6504 -11.3784
3 -11.0668 14.6457 -0.369208
3 -14.7273 12.1933 -5.69469
3 -11.1979 14.7973 -5.91832
3 -11.0044 11.5146 -2.81916
4 -13.9911 14.3028 2.57281
4 -13.7775 14.2008 8.76991
4 -14.3092 9.11124 3.35959
3 -14.8817 12.2316 -0.520303
3 -10.8542 14.9169 11.6071
3 -14.7013 11.9467 6.00213
3 -11.3949 14.5623 5.63909
3 -11.4456 11.5757 8.96372
4 -13.5411 8.74876 14.7785
3 -14.5085 12.0963 11.8558
4 -8.32104 14.2081 -8.70649
4 -8.71785 14.0488 2.94913
4 -8.315 14.0454 14.191
4 -14.9507 2.37423 -13.5696
4 -13.7174 8.97906 -13.9193
3 -11.6319 2.81818 -11.6153
3 -14.9369 5.72076 -12.4073
3 -12.5016 -0.025709 -14.6811
4 -14.2093 2.4592 -8.97384
4 -14.6731 2.68547 -2.96801
4 -14.207 -2.98476 -8.73247
4 -14.3331 9.0507 -3.50932
3 -14.9495 -0.568418 -11.3419
3 -11.634 3.14364 -0.225292
3 -15.14 5.4162 -0.354845
3 -14.8949 -0.155129 -6.00055
3 -12.2019 2.91142 -5.73089
3 -14.6977 6.1052 -5.96259
3 -12.0726 5.5654 -8.74928
3 -11.8483 0.0752313 -3.06985
4 -13.8566 3.07042 2.81915
4 -14.1584 3.08367 8.86871
4 -13.9981 -2.49479 2.75525
4 -14.1206 9.27333 9.05613
3 -14.7815 0.248585 -0.141872
3 -11.4204 2.92073 11.5643
3 -14.5962 5.86713 12.51
3 -14.7903 0.116426 5.34394
3 -10.9994 3.00453 5.87357
3 -14.7075 5.84333 5.56131
3 -11.866 6.00395 3.13287
3 -12.0973 -0.000658076 8.70152
4 -13.1683 2.72176 14.6194
4 -13.5604 -2.77254 14.5645
3 -14.6261 0.217679 12.2479
3 -11.2972 5.90726 14.8713
4 -8.86803 8.66462 -14.0661
4 -8.71731 13.8991 -13.8689
3 -5.79297 8.53504 -11.4961
3 -8.59146 11.3024 -11.3686
3 -5.83895 5.99202 -14.4365
3 -11.3575 6.06121 -14.628
1 -8.30962 8.57195 -8.54451
1 -8.67348 8.54519 -3.24462
1 -8.51282 3.10744 -8.46536
4 -8.46203 14.2395 -3.08307
2 -11.9225 5.76039 -11.588
2 -11.4614 11.4624 -11.482
2 -11.8583 5.69824 -5.90046
2 -11.5972 11.669 -5.72487
3 -11.7733 8.66232 -10.9744
3 -9.02244 5.85859 -11.4139
3 -5.56828 8.72724 -0.231923
3 -8.60526 11.17 0.353683
3 -11.5639 8.69974 -5.92666
3 -8.83258 5.73657 -5.82082
3 -5.72021 8.73492 -5.91476
3 -8.70246 11.4424 -5.9647
3 -11.7518 11.8665 -8.65525
3 -5.61951 11.525 -8.55404
3 -6.27774 5.60165 -3.01868
3 -11.6522 6.26157 -3.04024
1 -8.76836 8.72974 3.1763
1 -9.0134 8.72925 8.93113
1 -8.79855 2.81263 2.60671
4 -8.51696 14.239 8.65551
2 -12.1151 5.98254 0.0217543
2 -11.6673 11.5835 -0.0818022
2 -11.7012 5.87288 5.97099
2 -11.713 11.5973 5.981
3 -12.6572 8.82012 -0.0363269
3 -9.0388 6.36828 0.104911
3 -5.74525 8.77861 11.3531
3 -8.46732 11.5386 11.3837
3 -11.8748 8.78305 6.19601
3 -8.76756 6.30584 5.9653
3 -5.49949 8.78499 5.69306
3 -8.83524 11.5855 5.96777
3 -11.6248 11.4572 2.98624
3 -5.75831 11.8037 3.05644
3 -5.97468 6.21078 8.64706
3 -11.9513 5.88801 8.83091
4 -8.60673 8.57278 13.7637
4 -8.64636 2.80848 14.0168
2 -11.8834 5.80925 11.7833
2 -11.4936 12.0621 11.8113
3 -11.7329 8.79283 11.6921
3 -8.8139 5.79689 11.3387
3 -10.9107 11.5277 14.693
3 -5.56745 11.502 14.8255
4 -3.04843 13.6519 -14.4592
3 -0.413398 14.7253 -12.107
3 0.0306738 11.4737 -14.8578
3 -5.79973 11.2277 -14.7959
4 -3.00481 14.3577 -8.59948
4 -2.67309 14.2538 -3.04548
1 -3.06469 8.5252 -8.66976
2 -5.7554 11.4541 -11.6108
2 -5.81941 11.8108 -5.76527
3 -5.63957 14.7194 -11.8397
3 -2.93041 11.2599 -11.4258
3 0.221501 14.605 -0.229652
3 -6.08811 14.8034 -5.97802
3 -2.98705 11.7057 -5.54249
3 0.0590438 14.6752 -5.59568
3 -0.00585802 11.1368 -3.20607
3 -6.06503 11.5682 -2.83415
4 -2.80745 14.0761 3.20629
4 -2.89209 14.2911 8.45451
1 -2.70808 8.88641 3.09637
2 -5.72553 11.7324 0.0993045
2 -5.83607 11.7348 5.97948
3 -5.85083 14.6401 -0.186528
3 -2.96033 11.9069 -0.171288
3 0.0411649 14.7384 11.4536
3 -5.59961 14.9918 5.74925
3 -2.8976 11.6036 5.70065
3 0.0166051 14.4842 5.91092
3 0.0126601 11.5096 8.82488
3 -5.63315 11.9596 8.83606
4 -2.66868 14.3946 13.9411
4 -2.49185 9.12345 14.0851
2 -5.68421 11.702 11.7212
3 -5.50812 14.6974 11.995
3 -2.84775 11.7321 11.534
4 3.11118 14.1264 -8.28353
4 2.85954 13.9838 2.94718
4 2.60175 14.1318 13.8206
4 -13.7623 -9.06358 -14.3307
4 -14.5427 -3.07175 -14.0834
3 -11.6536 -8.82283 -11.5931
3 -14.7483 -6.14796 -11.9599
3 -10.9987 -11.935 -14.8406
4 -14.2171 -8.88423 -8.86388
4 -14.0141 -8.87713 -2.99335
4 -14.1147 -14.3407 -8.82609
4 -13.9874 -3.44738 -3.28421
3 -14.6476 -11.7598 -11.8084
3 -11.3977 -8.73665 0.136638
3 -14.8698 -5.86685 -0.773948
3 -14.8261 -11.8219 -5.54094
3 -11.5838 -8.97422 -5.87677
3 -14.7882 -5.86796 -5.90172
3 -11.9305 -5.8502 -8.78176
3 -11.5842 -11.6995 -2.83586
4 -14.3085 -8.69257 2.77666
4 -14.1996 -8.6123 8.6896
4 -14.2948 -14.0792 2.53078
4 -14.2789 -3.15813 8.52991
3 -14.4472 -11.427 -0.299743
3 -11.6743 -8.7818 11.7829
3 -14.9067 -5.522 12.0846
3 -14.9894 -11.4806 5.38364
3 -11.6145 -8.7644 5.64574
3 -14.6709 -5.87888 5.8688
3 -12.0852 -5.68074 2.90469
3 -11.4451 -11.3332 8.76882
4 -14.367 -8.62145 13.9601
3 -14.8967 -11.1103 11.2513
3 -11.5342 -5.57343 15.006
4 -8.45871 -3.3097 -14.3725
4 -8.80385 3.05855 -14.0535
3 -5.9028 -2.98889 -11.6651
3 -8.7368 -0.261816 -11.9954
3 -5.83906 -5.77895 -14.7364
3 -11.6913 -5.98261 -14.7904
1 -8.85884 -2.93397 -8.79576
1 -8.34976 -2.98124 -3.22834
1 -8.88006 -8.65605 -8.5114
1 -9.00024 3.25021 -3.06994
2 -11.6529 -5.87538 -11.7447
2 -11.6898 -0.178648 -11.7432
2 -11.8051 -6.03621 -5.93656
2 -12.0377 -0.125107 -5.89387
3 -11.6441 -3.04655 -11.881
3 -8.74998 -5.95864 -11.2897
3 -5.84774 -2.97621 -0.005174
3 -8.83181 -0.0357627 -0.179482
3 -11.5162 -2.90994 -6.11467
3 -8.53721 -6.00726 -5.84279
3 -5.97375 -2.97443 -5.90157
3 -9.07517 -0.160736 -5.59066
3 -11.2878 -0.0698897 -8.90498
3 -6.23846 -0.0150022 -8.85022
3 -5.76513 -6.10491 -2.97758
3 -11.2472 -6.05939 -2.84184
1 -8.92287 -3.04718 2.85403
1 -8.54258 -3.13064 8.83852
1 -8.82654 -8.565 2.6123
1 -8.76559 2.88374 8.68407
2 -11.8798 -5.68583 -0.0748167
2 -11.8925 0.227873 -0.237854
2 -11.7061 -5.75054 5.73865
2 -11.7517 0.256637 5.83734
3 -11.4877 -2.88319 0.0229855
3 -8.84004 -5.62551 0.171195
3 -5.92943 -2.78422 11.2762
3 -8.73221 -0.00631074 11.2186
3 -11.9531 -2.69299 5.8873
3 -8.91304 -5.37817 5.80259
3 -5.49043 -2.81555 5.64153
3 -8.7017 -0.393063 5.91269
3 -11.4037 0.119251 2.76636
3 -5.84403 0.140898 3.05973
3 -5.7182 -6.06633 8.79337
3 -11.6154 -6.06687 8.91868
4 -8.78477 -2.78456 14.0524
4 -8.79287 -8.74539 14.3509
2 -11.8673 -5.82502 11.9172
2 -11.6721 -0.0563314 11.676
3 -11.5361 -3.12154 11.2181
3 -8.92846 -5.88348 11.8219
3 -11.0681 -0.206371 14.543
3 -6.00351 0.139923 14.3852
4 -3.23703 3.21687 -14.4034
4 -3.01074 8.31148 -13.9365
3 -0.0380502 2.94671 -12.314
3 -3.04642 5.58497 -11.4861
3 0.321248 -0.349345 -14.7595
3 -6.21854 -0.166682 -15.0173
1 -3.55211 2.93384 -8.90687
1 -2.9793 2.77337 -2.83807
1 -3.27979 -2.71154 -8.8058
1 -3.11159 8.51001 -2.83281
2 -5.97013 -0.0545004 -12.0021
2 -5.93822 5.58001 -11.6021
2 -6.12252 0.00524517 -5.73793
2 -5.71629 5.89835 -5.78671
3 -6.01986 2.81174 -11.5402
3 -3.03942 0.233598 -11.8138
3 0.266568 2.9009 -0.823588
3 -2.90343 5.41793 -0.089133
3 -5.81641 2.94761 -5.8111
3 -2.97471 0.050174 -6.16351
3 -0.0135996 2.81925 -5.07639
3 -2.91336 5.4963 -5.83106
3 -5.74797 5.89525 -8.69853
3 0.121966 4.95916 -8.79045
3 -0.118056 -1.03663 -3.24582
3 -5.78666 -0.213089 -2.9155
1 -2.82937 2.94312 2.51472
1 -2.69307 2.80604 8.95536
1 -3.36197 -2.8961 2.58326
1 -2.94054 8.53344 8.71369
2 -5.93274 0.0586679 -0.0337135
2 -6.00729 5.95307 0.0239348
2 -5.70391 0.0858801 5.90386
2 -5.93384 5.75864 5.78818
3 -6.24342 2.97645 -0.23768
3 -2.85292 0.354692 -0.122483
3 -0.195955 2.92323 11.5214
3 -3.04412 6.06677 12.0136
3 -6.46347 2.92637 5.77873
3 -2.89488 0.609115 5.37162
3 0.506283 3.01039 6.33848
3 -2.97106 5.46604 6.2982
3 -5.65704 5.79582 2.99787
3 -0.350832 5.5125 3.16923
3 -0.268434 -0.146167 8.56938
3 -5.3524 0.172376 8.6744
4 -3.17711 2.65718 14.1245
4 -3.36288 -2.85625 14.0845
2 -5.78614 0.103092 11.6318
2 -5.82494 5.8912 11.4625
3 -5.93797 3.00675 11.2653
3 -2.76701 -0.0340079 11.6687
3 -6.23687 5.63445 14.478
3 0.23323 5.77367 14.8429
4 2.87054 8.88906 -14.497
4 2.83882 14.1635 -14.3695
3 5.77439 8.77839 -11.7345
3 2.89245 11.4446 -11.5104
3 6.07984 5.77686 -14.7994
3 -0.23466 6.1674 -14.9994
1 2.97814 8.2497 -8.89028
1 2.9541 8.84797 -2.42533
1 3.12731 2.75785 -8.86394
4 2.55061 13.8577 -2.83451
2 -0.202939 5.6915 -11.7264
2 -0.102958 11.6836 -11.8008
2 0.103356 5.69011 -5.97348
2 -0.00522583 11.4559 -5.9829
3 -0.18141 8.60274 -11.2742
3 2.88985 5.9016 -11.7826
3 6.07956 8.63669 0.20812
3 2.86034 11.4173 0.0891897
3 -0.0241121 8.47714 -6.77006
3 3.08573 5.8802 -5.86006
3 5.90635 8.86857 -6.50147
3 2.8035 11.5615 -5.45075
3 0.0432634 11.8869 -8.81217
3 6.03331 11.9085 -8.99859
3 5.66567 6.16154 -2.87891
3 0.242005 6.26424 -2.99048
1 2.70759 8.99218 3.09689
1 3.04122 8.66691 8.79759
1 2.88716 3.1503 3.20116
4 2.78098 14.1081 8.71717
2 -0.0255915 5.6541 0.0208311
2 -0.095678 11.5542 -0.0362499
2 0.0458234 5.81858 6.0551
2 -0.0709111 11.6637 5.72864
3 -0.203031 8.60471 0.26879
3 2.74384 6.18061 0.317204
3 5.8548 8.85643 12.2472
3 3.02279 11.3334 11.4767
3 -0.0225659 8.825 5.69461
3 2.92596 5.78589 5.80931
3 5.78444 8.85237 6.03884
3 2.84634 11.4638 5.97532
3 0.0930103 11.439 2.8344
3 5.77149 11.5995 2.98993
3 5.9516 6.11561 9.2166
3 0.440062 6.047 9.01795
4 2.85583 8.53507 14.1046
4 2.9562 2.60968 14.3172
2 -0.120585 5.69421 11.8817
2 0.0674522 11.7051 11.7369
3 0.291765 8.79156 11.5699
3 3.02944 5.60005 12.1294
3 0.209859 11.8569 14.8366
3 5.59333 12.1461 14.8493
4 8.45062 14.3515 -13.7083
3 11.2856 14.5269 -11.2821
3 12.1416 11.0924 -14.3983
3 5.8752 11.7041 -14.7932
4 8.66402 14.3901 -8.28923
4 8.23404 13.9868 -3.15428
1 9.2855 8.97424 -8.64599
2 5.83277 11.6224 -11.8154
2 5.67587 11.7799 -6.05502
3 5.52724 14.6159 -11.4629
3 9.09921 11.3305 -11.555
3 12.0599 14.5482 -0.142582
3 5.60734 14.5773 -5.69384
3 8.67082 11.5536 -5.76425
3 11.8243 14.4963 -5.8363
3 11.3306 11.3143 -2.86533
3 5.75013 11.1817 -2.91001
4 8.74949 13.8465 2.72905
4 8.21601 14.4288 8.69757
1 8.35237 8.57587 3.04586
2 5.70813 11.5757 -0.0612682
2 5.77896 11.849 5.89325
3 5.87121 14.475 0.0477505
3 8.75983 11.7541 0.0729757
3 11.2228 14.8974 11.1608
3 5.36219 14.789 5.77136
3 8.68865 11.8602 5.90088
3 12.0393 14.8824 5.74992
3 11.2581 11.6899 8.7301
3 5.72332 11.6265 8.95253
4 8.42621 14.0859 14.3446
4 8.97511 8.67923 14.4138
2 5.74495 11.716 11.8548
3 5.6689 14.7097 11.6844
3 8.57817 11.6265 11.7445
4 14.8462 13.7868 -8.49999
4 14.1899 14.0484 2.85168
4 -14.0863 -14.4992 -2.89284
4 -14.3424 -13.5983 8.53676
4 -8.73217 -14.553 -13.9625
4 -8.7096 -8.42147 -13.7185
3 -5.69161 -14.784 -11.1938
3 -8.79203 -11.9218 -11.5965
4 -8.27589 -14.4013 -8.48685
4 -8.72905 -14.2924 -3.10278
1 -8.69241 -8.85599 -2.73619
2 -11.8175 -12.0588 -11.8053
2 -11.58 -11.8548 -5.84375
3 -11.4934 -15.0326 -11.3083
3 -5.36053 -14.5974 0.505669
3 -8.71445 -12.0381 -0.080639
3 -11.4645 -15.163 -5.83726
3 -5.85107 -14.7202 -5.65145
3 -8.60707 -11.652 -5.80824
3 -11.6026 -11.6482 -8.80361
3 -5.66437 -11.7697 -8.6326
4 -8.3573 -14.3923 2.93629
4 -8.59677 -14.1371 8.78324
1 -8.69191 -8.39853 8.93211
2 -11.619 -11.8418 0.0637841
2 -11.8256 -11.7199 5.82344
3 -11.5095 -14.7905 0.219433
3 -5.79636 -15.3261 11.7497
3 -8.65761 -11.5324 11.7115
3 -11.6937 -14.6542 5.76056
3 -5.45585 -14.6173 5.67419
3 -8.8245 -11.8256 5.84378
3 -11.6969 -11.5059 2.96061
3 -6.08529 -11.1751 2.96698
4 -8.64057 -14.2903 14.0296
2 -11.8822 -11.7248 11.7932
3 -11.5079 -14.7408 11.1314
3 -11.2491 -11.7333 14.5586
3 -5.55779 -11.6851 14.7382
4 -3.37117 -8.8748 -14.2342
4 -2.83902 -3.04811 -13.9385
3 -0.0337723 -8.67804 -12.2294
3 -2.91316 -5.99456 -11.6599
3 0.000715715 -11.8792 -14.7629
3 -5.44863 -12.0063 -14.7
1 -3.12419 -8.67121 -8.72769
1 -2.64464 -8.57137 -2.8376
4 -2.82065 -14.1086 -8.31344
1 -3.04124 -3.26347 -3.27023
2 -5.85928 -11.7644 -11.6063
2 -5.93448 -5.87546 -11.7323
2 -5.74917 -11.6835 -5.73316
2 -5.71361 -5.95341 -5.92659
3 -5.88143 -8.74353 -11.4345
3 -2.86625 -11.3116 -11.2853
3 0.245786 -8.60901 -0.691916
3 -2.83283 -6.07936 -0.0151626
3 -5.93499 -8.82008 -5.88926
3 -2.74 -11.1533 -5.72009
3 0.503753 -8.73818 -5.57076
3 -2.79269 -6.03827 -5.83495
3 -5.77974 -5.98467 -8.76313
3 0.0412204 -6.24317 -8.79035
3 0.0973821 -11.927 -2.88375
3 -5.85027 -11.4523 -2.87622
1 -3.1489 -8.68906 2.83966
1 -2.81572 -8.74592 8.56472
4 -2.82675 -13.622 3.07303
1 -2.99375 -2.86361 8.7523
2 -5.79778 -11.6645 0.0252388
2 -5.93713 -5.83662 -0.0328618
2 -5.94834 -11.4005 5.90231
2 -5.9324 -5.71843 5.8541
3 -6.3922 -8.75622 -0.132747
3 -2.95296 -11.2075 0.329984
3 0.0923888 -8.58333 11.0004
3 -3.06455 -5.91985 11.5108
3 -6.52635 -8.55392 5.76715
3 -3.08199 -11.1226 5.7237
3 0.13743 -8.34407 6.15867
3 -3.07446 -6.089 5.56993
3 -5.87086 -6.01014 2.81793
3 0.139431 -6.41855 2.77181
3 0.297709 -11.4723 8.7039
3 -5.67644 -11.9768 8.82892
4 -2.38783 -8.61473 14.1349
4 -2.87059 -14.0154 14.0872
2 -5.57487 -11.644 11.6974
2 -5.8745 -5.70208 11.6057
3 -5.75996 -8.76095 11.9331
3 -2.7639 -11.3104 11.4614
3 -5.8214 -5.3644 14.6774
3 0.391348 -5.76735 14.3567
4 3.27911 -2.71916 -14.4327
4 2.96874 2.26822 -14.466
3 5.78622 -2.90191 -11.467
3 2.82794 -0.189022 -11.5276
3 5.96157 -5.42278 -14.9454
3 0.326107 -5.23809 -15.0112
1 3.15505 -2.9332 -8.78727
1 3.07265 -2.96839 -3.2093
1 2.88683 -8.48356 -9.13465
1 3.16301 2.83684 -3.27635
2 -0.0484049 -5.66258 -11.938
2 -0.120462 0.123825 -11.8667
2 0.101709 -5.73165 -5.90501
2 -0.0759478 0.0107177 -6.02385
3 -0.204723 -2.84904 -11.1105
3 2.83681 -5.39046 -11.7107
3 6.50598 -2.84946 -0.0768717
3 3.04391 -0.264738 -0.672563
3 -0.291026 -2.78001 -6.70518
3 3.10698 -5.51924 -6.31784
3 6.24291 -2.88439 -5.58819
3 2.95225 -0.124084 -5.57216
3 0.0120623 0.740035 -8.88295
3 5.44071 -0.00126916 -8.54918
3 5.63328 -6.02922 -3.04885
3 0.0442026 -5.42539 -3.04671
1 3.0352 -2.73231 2.20814
1 3.00221 -3.04532 8.53274
1 3.19621 -8.31218 2.55407
1 2.96891 2.93987 9.1037
2 0.148111 -5.77229 -0.0570769
2 0.216415 -0.0558125 -0.324538
2 -0.126982 -5.48941 5.56226
2 -0.00294304 0.065608 5.6977
3 -0.0390908 -2.91585 0.235711
3 2.9648 -5.52778 -0.0632374
3 5.95472 -2.82614 11.4422
3 2.83167 -0.243908 11.4131
3 -0.892051 -2.70602 5.33317
3 2.9211 -5.01853 5.52338
3 6.55321 -2.9997 6.17296
3 3.00181 -0.370254 6.05166
3 0.571676 0.505486 2.67212
3 5.70112 0.0983552 2.69045
3 6.06901 -6.04849 8.62378
3 -0.0261987 -5.20576 8.61061
4 2.85414 -3.17015 13.6594
4 3.02591 -8.35216 13.7855
2 -0.066143 -5.79829 11.4213
2 0.0206892 -0.0280109 11.6225
3 -0.0311156 -2.88576 11.6387
3 3.02455 -5.90661 11.1058
3 0.213805 0.179204 14.6127
3 5.57857 -0.368352 14.922
4 8.6428 2.83302 -14.2364
4 9.03157 8.55326 -14.1023
3 11.4439 2.94956 -11.2869
3 8.68601 6.24568 -11.246
3 10.9968 -0.121806 -14.7109
3 5.77311 -0.140453 -14.4967
1 8.71948 2.86428 -8.85458
1 8.41781 3.2455 -3.09546
1 8.53933 -3.34855 -8.67468
1 8.59108 8.69319 -2.66194
2 5.77492 -0.0619939 -11.4659
2 5.78988 5.84036 -11.8089
2 5.89845 0.0334499 -5.78812
2 6.11313 5.94737 -5.80857
3 6.05145 2.96293 -11.7432
3 8.70824 -0.0834425 -11.4136
3 11.553 3.08836 0.141349
3 8.58087 5.61782 0.104725
3 5.7763 2.99561 -6.01713
3 8.8798 0.172413 -6.52528
3 11.9526 2.7806 -5.7673
3 8.83564 5.56164 -6.23944
3 5.60877 5.47657 -8.90428
3 12.0635 5.84911 -8.58733
3 10.8817 0.284366 -2.87635
3 6.23434 0.288059 -2.90615
1 8.56802 2.90088 3.21504
1 8.87056 2.75112 8.81196
1 8.86834 -2.98194 3.0528
1 8.51458 8.93405 9.0314
2 5.94421 -0.0413675 -0.174941
2 5.60688 5.74145 0.170103
2 5.84349 -0.175933 5.66481
2 5.81014 5.73789 6.14897
3 5.0944 2.93199 0.225846
3 8.64265 0.669653 0.212326
3 11.4604 2.9001 11.5978
3 8.96701 5.85015 11.8005
3 5.65347 2.88458 6.22001
3 8.82574 0.259595 5.93744
3 11.9652 2.78966 5.8376
3 8.59918 5.79318 5.78023
3 5.84265 5.58424 3.17873
3 11.5817 5.47668 2.96698
3 11.5857 1.55344e-06 8.96959
3 5.93668 0.0509621 8.8428
4 8.75267 3.01946 14.2358
4 8.44152 -2.92162 14.1185
2 5.73748 0.0507978 11.9162
2 6.03995 5.93479 12.0889
3 5.87643 3.10428 11.6745
3 8.66757 0.2497 12.0966
3 6.30081 5.68624 14.9894
3 12.0642 5.97389 14.9016
4 14.7622 8.6623 -13.7607
3 14.963 11.3865 -11.2724
3 11.2781 5.54162 -14.7875
4 14.5769 8.70662 -8.41981
4 13.8519 8.80986 -2.47068
4 14.5413 3.11617 -8.15773
4 14.2298 13.7248 -3.01019
2 11.6455 5.81351 -11.5507
2 12.0576 11.628 -11.4146
2 11.7465 5.69711 -5.66853
2 11.5225 11.6406 -5.77394
3 12.0716 8.62148 -11.3115
3 14.8427 5.40893 -11.3936
3 14.7877 11.4419 0.0131966
3 11.7508 8.70296 -5.75035
3 14.6518 6.05251 -5.40338
3 14.6285 11.4021 -5.51154
3 11.9284 11.5735 -8.61757
3 11.2747 6.05436 -2.75261
4 13.8795 8.76916 2.7827
4 13.7873 8.57304 8.54842
4 14.2353 2.87672 2.61641
4 14.1093 14.0711 8.80909
2 11.4594 5.84236 0.1888
2 11.6335 11.6861 0.00987709
2 11.5304 5.74614 5.85496
2 11.6867 11.7711 5.8267
3 11.1103 8.79186 -0.0597252
3 14.4474 5.9221 0.414076
3 14.7759 11.0826 10.8488
3 11.3732 8.76302 5.47741
3 14.795 5.92331 5.82494
3 14.8425 11.2671 6.07278
3 11.5943 11.6518 2.93589
3 11.3167 5.90447 8.80434
4 14.6623 9.26369 14.3752
4 13.95 2.7266 14.2777
2 11.9601 5.86956 11.726
2 11.8959 11.9271 11.6995
3 11.7001 8.85719 11.7699
3 14.8884 5.99259 12.0084
3 11.9019 11.6619 14.7985
4 -2.88086 -14.4727 -13.6859
4 -2.77518 -13.9828 -2.48176
4 -2.75805 -14.1334 8.3282
4 3.23953 -13.7877 -14.5329
4 3.29047 -8.64243 -14.4103
3 6.09817 -14.6366 -12.206
3 3.02313 -11.3858 -11.5585
4 2.72968 -13.8633 -8.63649
4 2.91659 -14.3089 -2.80182
1 3.08756 -8.94438 -3.0391
2 0.0959913 -11.679 -11.7433
2 0.20181 -11.6119 -5.86526
3 0.207005 -14.5806 -11.3018
3 5.69037 -14.5316 0.0486445
3 2.88264 -11.4098 0.00474283
3 -0.00378289 -14.4765 -6.02923
3 6.2148 -14.7959 -5.622
3 3.09401 -11.8415 -5.76851
3 0.0858946 -11.0967 -8.73112
3 6.18201 -11.884 -8.93762
4 2.3414 -13.6124 2.76678
4 2.90279 -13.8555 8.71401
1 3.1471 -9.09367 8.49985
2 0.084651 -11.5319 0.0179993
2 0.0129652 -11.4174 5.86971
3 -0.331229 -14.3334 0.355035
3 5.69879 -14.6555 11.9737
3 2.99837 -11.2628 11.7617
3 -0.00541688 -14.3643 5.8827
3 6.08264 -14.4654 6.11338
3 2.83257 -11.6731 5.64781
3 -0.0974758 -10.8291 2.88164
3 5.87463 -11.562 2.74246
4 2.69037 -13.8745 14.3221
2 0.166926 -11.491 11.6167
3 -0.113935 -14.5342 11.6027
3 0.0250824 -11.5432 14.8779
3 6.32911 -11.5104 14.7504
4 8.533 -8.32572 -14.3081
4 8.54431 -2.92829 -14.126
3 11.515 -8.81638 -11.4295
3 8.73467 -5.85277 -11.251
3 12.1123 -11.5762 -14.6746
3 5.93332 -11.2977 -14.7817
1 8.72797 -9.16803 -8.59934
1 8.65333 -8.78833 -2.926
4 8.52707 -14.7153 -8.5715
1 8.83368 -3.06282 -3.09758
2 6.02329 -11.5574 -11.7996
2 5.74321 -5.64583 -11.9805
2 6.01483 -11.634 -5.83155
2 5.95756 -5.87174 -6.08043
3 5.95312 -8.69123 -11.7021
3 8.78702 -11.3793 -12.0928
3 11.3749 -8.91118 0.00139146
3 8.73262 -6.08723 -0.340729
3 5.57553 -8.76443 -6.05284
3 8.87588 -11.8433 -5.86267
3 11.3958 -9.13013 -5.77045
3 8.84184 -6.12842 -6.07029
3 5.74573 -5.783 -9.02684
3 12.0274 -5.76612 -8.56336
3 11.3784 -11.7647 -2.87349
3 5.9243 -11.545 -2.95725
1 8.36781 -8.73121 2.56536
1 8.67298 -8.57807 8.85914
4 8.60877 -14.1259 2.82902
1 8.89777 -2.68342 9.04136
2 5.80757 -11.6861 -0.0864985
2 5.9583 -5.71713 -0.177837
2 5.8997 -11.5611 5.67785
2 5.86846 -5.80939 5.6863
3 5.94668 -8.74108 0.0782241
3 8.71729 -11.6187 0.0271035
3 11.4733 -8.59319 11.5197
3 8.81056 -5.84301 11.7109
3 5.53918 -8.73743 5.4528
3 8.76237 -11.3926 5.52482
3 12.2983 -8.69023 5.73805
3 8.75885 -6.6446 5.63866
3 6.14068 -5.48174 2.66789
3 11.4531 -5.48912 2.9143
3 11.482 -11.3066 8.80299
3 5.87353 -11.5078 8.73844
4 8.82566 -8.66789 14.1586
4 8.68978 -14.2956 13.9999
2 5.87241 -11.7313 11.8866
2 5.93174 -5.9179 11.5705
3 5.86416 -8.78534 11.4614
3 8.70905 -11.6421 11.5951
3 5.62346 -5.57838 14.4807
3 11.6219 -5.63289 14.9154
4 13.8747 -2.82311 -14.4979
4 13.8707 3.02646 -14.2636
3 14.9885 -0.217363 -12.2708
3 11.384 -6.01858 -14.6864
4 14.3045 -2.72775 -8.40377
4 13.8115 -2.67758 -2.67505
4 13.9723 -8.95238 -8.56314
4 13.9178 3.13858 -2.53277
2 11.6091 -5.87988 -11.6149
2 11.4982 -0.0263769 -11.5448
2 11.7569 -6.16309 -5.74242
2 11.765 -0.176472 -5.70268
3 11.4369 -3.02415 -11.583
3 14.8981 -5.77511 -11.9861
3 14.2657 0.137816 0.0456488
3 11.8098 -3.14385 -5.72007
3 14.6654 -6.1073 -5.63255
3 14.6578 -0.0881596 -5.7128
3 12.1033 -0.00921294 -8.62502
3 11.4841 -5.85448 -2.86242
4 13.7842 -2.73395 2.75969
4 13.9036 -2.83727 8.59413
4 14.0761 -7.95282 2.48496
4 14.4021 2.87416 8.94337
2 11.5468 -5.75006 0.105532
2 11.4584 -0.0188633 0.053022
2 11.5655 -5.90003 5.73658
2 11.742 -0.209857 5.98723
3 11.1343 -2.84168 0.0127644
3 14.5909 -5.22402 0.0446808
3 14.6715 0.113708 11.608
3 11.143 -2.98984 5.97143
3 14.4327 -5.45427 5.84622
3 14.7579 -0.270856 5.67519
3 11.3374 -0.163116 3.17318
3 11.3645 -5.74935 8.78687
4 14.184 -3.01292 14.181
4 13.7397 -8.7703 14.4908
2 11.7224 -5.73118 11.5812
2 11.5383 0.010147 11.8584
3 11.3737 -2.87667 11.7639
3 14.6643 -5.96207 11.8213
3 11.2558 -0.207596 15.0193
4 8.94999 -13.9505 -14.4748
4 8.53669 -14.2468 -2.83603
4 8.69954 -14.0016 8.64253
4 14.2494 -9.02667 -13.6726
3 14.6204 -11.721 -11.0912
4 13.5511 -14.5668 -8.79194
4 13.9191 -14.3369 -2.95792
4 13.9847 -8.82102 -2.72992
2 11.8607 -11.7501 -11.7862
2 11.7399 -12.1866 -5.88714
3 11.4327 -14.7529 -11.741
3 14.6241 -11.6094 -0.327321
3 11.3516 -15.1878 -5.75733
3 14.6646 -12.3813 -5.82547
3 11.4574 -11.7731 -8.74792
4 14.2451 -14.1217 3.05567
4 14.1864 -13.9428 8.95651
4 14.349 -8.89953 9.01972
2 11.5945 -11.7357 0.148528
2 11.816 -11.6666 5.94676
3 11.6381 -14.9469 0.479613
3 14.5626 -11.5111 12.0198
3 11.2433 -14.5838 5.81967
3 14.9471 -11.9491 6.01155
3 11.8462 -11.3416 3.01959
2 11.55 -11.734 11.689
3 11.5067 -14.66 11.3587
3 11.3633 -11.4132 14.6347
