783
 Atoms. Timestep: 624
3 -11.1279 14.5417 -11.343
3 -11.1952 11.2457 -14.7027
4 -13.7488 13.9753 -8.73789
4 -13.5642 14.0615 -2.92915
4 -13.9379 8.42367 -8.90724
3 -14.5236 11.2633 -11.3973
3 -11.1747 14.448 -0.0433078
3 -14.5588 11.8414 -5.79679
3 -11.2342 14.4154 -5.83057
3 -11.4286 11.1208 -2.9201
4 -13.5591 14.2397 2.93069
4 -13.7503 14.0514 8.72282
4 -14.0707 8.70393 3.27319
3 -14.5909 12.1191 0.0901771
3 -11.0474 14.6214 11.308
3 -14.4808 11.7789 5.75976
3 -11.2823 14.625 5.84095
3 -11.2911 11.4351 8.69564
4 -13.7511 8.71335 14.0009
3 -14.4103 11.349 11.3516
4 -8.58053 13.7274 -8.58758
4 -8.57788 13.8133 2.79935
4 -8.41202 13.9214 13.942
4 -13.934 2.87034 -14.0541
4 -13.8884 8.64226 -14.0861
3 -11.3102 2.85927 -11.5823
3 -14.5094 5.74125 -11.6883
3 -11.6474 -0.0482403 -14.7205
4 -13.6992 2.80129 -8.64898
4 -13.6714 2.81856 -3.11129
4 -13.9408 -2.64841 -8.73536
4 -14.0673 8.00975 -3.03477
3 -14.4992 0.0365402 -11.5613
3 -11.0889 2.84893 -0.0723544
3 -14.545 5.19536 -0.358893
3 -14.4179 0.207521 -6.04681
3 -10.9718 2.80951 -5.88916
3 -14.4183 5.36693 -5.8689
3 -11.374 5.6865 -8.8045
3 -11.4958 -0.116401 -2.95784
4 -13.7832 2.63332 2.56669
4 -14.0236 3.30039 8.59721
4 -13.8633 -2.82933 2.75467
4 -13.8101 8.64266 8.73657
3 -14.4188 -0.117305 -0.00552095
3 -11.4029 2.88866 11.2944
3 -14.4527 5.82194 11.6164
3 -14.6329 -0.0149502 5.13157
3 -11.5079 2.91108 5.76312
3 -14.6294 6.08503 6.07294
3 -11.7086 5.72202 2.87952
3 -12.3529 0.00614337 8.60568
4 -13.6777 2.95209 14.1068
4 -13.7432 -2.94019 14.0357
3 -14.6626 0.0436409 12.057
3 -11.3645 5.80963 14.6046
4 -8.51302 8.5491 -14.0808
4 -8.57209 13.903 -14.0477
3 -5.67771 8.63091 -11.6656
3 -8.61465 11.3493 -11.5118
3 -5.74392 5.68513 -14.7095
3 -11.4889 5.7182 -14.7189
1 -8.56463 8.59765 -8.88898
1 -8.43437 8.53517 -2.94192
1 -8.60204 2.88697 -8.94087
4 -8.64737 13.6781 -2.94222
2 -11.5265 5.74535 -11.7373
2 -11.5733 11.5961 -11.7324
2 -11.4389 5.68711 -5.87134
2 -11.5928 11.4344 -5.83344
3 -11.3266 8.62145 -11.5763
3 -8.59812 5.73913 -11.6002
3 -5.41393 8.62578 -0.231591
3 -8.7169 11.0791 -0.0308153
3 -11.8651 8.55116 -5.90064
3 -8.5854 6.30711 -6.01458
3 -5.2635 8.56554 -5.71338
3 -8.64801 11.0813 -5.81436
3 -11.3799 11.2639 -8.75138
3 -5.75283 11.2803 -8.74971
3 -6.05969 5.49244 -2.93306
3 -11.1342 5.65785 -2.9525
1 -8.60012 8.70021 3.07347
1 -8.54411 8.64434 8.60096
1 -8.84961 3.04946 3.00564
4 -8.4693 13.9465 8.54136
2 -11.6203 5.74589 -0.0540414
2 -11.6661 11.4563 -0.0193077
2 -11.6745 5.81903 5.78129
2 -11.5213 11.6465 5.80615
3 -12.2134 8.59855 0.082942
3 -8.73644 6.32763 0.23279
3 -5.675 8.63199 11.3449
3 -8.49587 11.4085 11.3675
3 -11.4286 8.71641 5.84877
3 -8.71223 5.89475 5.61422
3 -5.64038 8.71116 5.89382
3 -8.61078 11.422 5.76747
3 -11.3813 11.3535 2.89955
3 -5.81468 11.3112 2.85449
3 -5.96056 5.73488 8.63954
3 -11.291 5.83997 8.67403
4 -8.38797 8.5789 13.9169
4 -8.59034 2.69718 13.7929
2 -11.4859 5.79493 11.6128
2 -11.4463 11.664 11.6698
3 -11.229 8.68387 11.4382
3 -8.58651 5.68894 11.5608
3 -11.0299 11.2774 14.6195
3 -5.5665 11.4538 14.5428
4 -2.86953 13.8583 -14.1048
3 -0.07174 14.6366 -11.7494
3 0.0720701 11.4798 -14.584
3 -5.71072 11.4864 -14.686
4 -3.07359 13.9515 -8.72506
4 -2.68285 13.9342 -2.87452
1 -2.93071 8.57864 -8.80913
2 -5.74282 11.5492 -11.6888
2 -5.75714 11.4856 -5.84261
3 -5.68657 14.5184 -11.6309
3 -2.86282 11.3839 -11.4775
3 0.142612 14.5388 -0.2263
3 -5.99901 14.4642 -5.93603
3 -2.87536 11.7174 -5.79746
3 0.258033 14.5184 -5.58041
3 0.0505956 11.1794 -2.89006
3 -5.70385 11.4553 -2.94466
4 -3.09934 13.9858 2.86259
4 -2.6053 13.8577 8.70788
1 -3.01607 8.81841 2.87161
2 -5.82723 11.542 -0.051657
2 -5.73961 11.6716 5.75092
3 -6.02479 14.4964 0.0340182
3 -2.92037 11.6378 0.0104553
3 0.139303 14.505 11.3915
3 -5.91378 14.6196 5.55609
3 -2.8655 11.6089 5.74682
3 0.133745 14.5322 6.05276
3 0.11395 11.1595 8.70064
3 -5.59312 11.5728 8.64778
4 -2.71196 13.9259 13.8813
4 -2.94547 8.37397 13.9213
2 -5.61596 11.5595 11.5648
3 -5.53733 14.5517 11.5325
3 -2.73142 11.2638 11.4331
4 2.95854 13.9082 -8.38761
4 2.97997 13.8535 2.85771
4 3.09715 14.101 13.7895
4 -14.0739 -8.61739 -13.8828
4 -13.9861 -2.86705 -14.0024
3 -11.5472 -8.65914 -11.3196
3 -14.6901 -5.63908 -11.6169
3 -11.4427 -11.2507 -14.5395
4 -13.9705 -8.6532 -8.37856
4 -13.8145 -8.66275 -2.84273
4 -14.1055 -13.8744 -8.58401
4 -13.9201 -3.06503 -2.76653
3 -14.7339 -11.1989 -11.1643
3 -11.3422 -8.73824 0.0162755
3 -14.5314 -5.94058 -0.0833916
3 -14.5656 -11.4503 -5.64998
3 -11.2751 -8.71072 -5.72995
3 -14.5956 -6.08129 -5.52689
3 -11.6999 -5.7158 -8.66857
3 -11.3176 -11.485 -2.86263
4 -13.8772 -8.65933 2.86365
4 -13.865 -8.6666 8.50366
4 -14.0098 -13.9044 2.88848
4 -14.0571 -3.28985 8.48246
3 -14.5344 -11.4892 0.0182802
3 -11.3899 -8.69915 11.3634
3 -14.5572 -5.7644 11.5385
3 -14.5456 -11.4911 5.74393
3 -11.3296 -8.7152 5.7061
3 -14.5708 -6.01726 5.80126
3 -11.5035 -5.79417 2.85657
3 -11.3553 -11.4505 8.64375
4 -13.9085 -8.66969 13.9258
3 -14.5726 -11.2698 11.2345
3 -11.4443 -5.8161 14.5282
4 -8.65055 -3.10609 -14.0327
4 -8.4254 2.92368 -14.0889
3 -5.77523 -2.92374 -11.6539
3 -8.61799 -0.0443227 -11.8398
3 -6.09614 -6.0159 -14.6428
3 -11.5869 -5.78859 -14.5602
1 -8.63919 -2.91964 -8.74673
1 -8.71142 -3.1251 -2.89097
1 -8.74852 -8.61562 -8.65846
1 -8.54793 2.56873 -2.9245
2 -11.7074 -5.78065 -11.5795
2 -11.5243 -0.0190273 -11.7255
2 -11.6368 -5.82304 -5.77654
2 -11.4446 -0.0666969 -5.86244
3 -11.4003 -2.89572 -11.4817
3 -8.76502 -5.79301 -11.3597
3 -5.37932 -2.85461 -0.206079
3 -8.5611 -0.37571 -0.409776
3 -11.7458 -2.9413 -5.77983
3 -8.69189 -5.49824 -6.00245
3 -5.20394 -2.89473 -5.73459
3 -8.5442 -0.590788 -5.60095
3 -11.1911 -0.0156658 -8.78199
3 -6.00725 -0.19182 -8.76076
3 -6.02763 -5.85585 -2.93049
3 -11.2737 -5.87732 -2.89775
1 -8.73557 -3.02137 2.81614
1 -8.57424 -3.11098 8.58135
1 -8.66584 -8.64034 2.85578
1 -8.6086 3.01488 8.59914
2 -11.5772 -5.85105 -0.0250329
2 -11.4574 -0.0518868 -0.0455555
2 -11.6063 -5.81936 5.73231
2 -11.7082 -0.00656495 5.76302
3 -11.4363 -2.96284 -0.0150236
3 -8.62579 -5.69695 0.132327
3 -5.81224 -2.95056 11.3075
3 -8.7495 -0.0375082 11.0378
3 -11.531 -2.91528 5.73432
3 -8.66049 -5.63761 5.62195
3 -5.60617 -2.88732 5.91463
3 -8.7817 -0.0636242 6.36966
3 -11.0918 -0.0271356 2.87212
3 -6.26166 -0.21404 2.89259
3 -5.88277 -5.93179 8.64314
3 -11.37 -5.87992 8.61209
4 -8.66638 -2.85079 13.754
4 -8.5834 -8.60173 13.9089
2 -11.5924 -5.81401 11.5394
2 -11.7073 -0.013368 11.4423
3 -11.4534 -2.91595 11.2286
3 -8.68335 -5.78526 11.4508
3 -11.2943 -0.037294 14.4333
3 -6.14718 -0.144028 14.4971
4 -2.87208 2.7532 -13.9652
4 -2.71272 8.60346 -14.0128
3 0.0573515 2.92776 -11.6657
3 -2.8265 5.74659 -11.6232
3 -0.14568 -0.103668 -14.5554
3 -5.51729 0.0678181 -14.6585
1 -2.8471 3.02708 -8.92611
1 -2.50416 2.75699 -2.93081
1 -3.07389 -2.89509 -8.86416
1 -2.78412 8.71218 -2.89788
2 -5.7223 -0.0317001 -11.7001
2 -5.71076 5.74321 -11.7439
2 -5.66559 0.0024949 -5.82903
2 -5.74137 5.67023 -5.83928
3 -5.72186 2.85816 -11.4645
3 -2.83644 0.0254603 -11.2774
3 0.509756 2.8737 -0.46635
3 -2.95082 5.29279 -0.214748
3 -6.381 2.83037 -6.03455
3 -2.81024 0.581457 -6.1876
3 0.575281 2.86982 -5.41215
3 -2.86623 5.15854 -5.75556
3 -5.63987 5.84079 -8.78395
3 -0.0590838 5.58826 -8.70692
3 -0.454828 -0.407566 -2.89385
3 -5.339 0.307165 -2.91811
1 -3.29102 3.16665 2.93771
1 -2.82659 2.75114 8.66342
1 -3.25114 -2.53812 2.90833
1 -2.84981 8.60071 8.53791
2 -5.71741 0.060708 -0.0161532
2 -5.85707 5.75647 -0.0437728
2 -5.87863 0.0193814 5.78106
2 -5.78554 5.80677 5.75939
3 -6.31637 2.90932 0.336453
3 -2.86759 0.523012 0.443579
3 0.0236695 2.87553 11.1907
3 -2.81147 5.74463 11.1968
3 -6.1134 2.91802 5.58506
3 -2.95601 0.429306 5.37254
3 0.416096 2.8959 6.27228
3 -2.89568 5.46994 6.04878
3 -5.63196 6.0867 2.87229
3 -0.287941 5.38833 2.91131
3 -0.451069 -0.320472 8.666
3 -5.37039 0.011509 8.63734
4 -2.82238 2.98541 13.8309
4 -3.05612 -3.09661 13.9398
2 -5.84931 -0.0560534 11.5403
2 -5.69314 5.73313 11.562
3 -5.72646 2.84096 11.3872
3 -2.95286 -0.0624585 11.7764
3 -5.6205 5.73536 14.5248
3 -0.116947 5.47026 14.5705
4 2.8943 8.6552 -13.8822
4 2.90185 13.9629 -13.9555
3 5.75076 8.72248 -11.4804
3 2.89157 11.4778 -11.3418
3 5.78926 5.82604 -14.5499
3 0.209841 6.02399 -14.6192
1 2.86343 8.68203 -8.69714
1 3.04955 8.60074 -2.84649
1 2.95191 3.0955 -8.66049
4 2.83046 13.7879 -2.87618
2 0.0592685 5.81961 -11.6616
2 0.0140125 11.654 -11.5983
2 0.00121148 5.73748 -5.77265
2 0.00391599 11.5479 -5.78445
3 0.0309762 8.71393 -11.3635
3 2.92839 5.85007 -11.3452
3 5.97238 8.65372 -0.154651
3 2.85608 11.2596 0.00814623
3 -0.391073 8.6352 -6.09589
3 2.88457 6.1793 -5.93042
3 6.05981 8.67664 -5.61705
3 2.88468 11.1627 -5.76414
3 -0.0264795 11.7099 -8.68684
3 5.76067 11.4244 -8.63803
3 5.57413 5.54859 -2.85169
3 0.0598975 6.2128 -2.88833
1 2.66174 8.8174 2.87333
1 3.16994 8.64818 8.65116
1 2.82131 3.26028 2.90426
4 2.88165 13.8226 8.52503
2 -0.0546287 5.72705 -0.00442167
2 -0.0296497 11.5813 -0.00660592
2 0.0170129 5.76186 5.81744
2 0.0235504 11.5693 5.80153
3 -0.333745 8.64317 0.32709
3 2.83394 6.15958 0.297923
3 5.93546 8.70039 11.3806
3 3.04305 11.3963 11.3928
3 -0.324875 8.65074 5.43493
3 2.8979 6.23084 5.53196
3 6.12592 8.6618 5.9651
3 2.9069 11.2253 5.76796
3 -0.0308958 11.7126 2.8959
3 5.72441 11.2616 2.88922
3 5.69069 5.67017 8.73471
3 0.279189 6.25812 8.6963
4 3.27591 8.67329 14.0228
4 2.73208 2.7504 13.8824
2 0.076677 5.77224 11.6068
2 0.156084 11.5221 11.6478
3 0.183437 8.64447 11.9689
3 2.97975 5.75531 11.6457
3 0.276747 11.8411 14.6369
3 5.90364 11.6054 14.5468
4 8.64073 13.9727 -13.9194
3 11.2515 14.6209 -11.2415
3 11.2483 11.2916 -14.5701
3 5.74303 11.5747 -14.5528
4 8.51346 13.9789 -8.61788
4 8.49553 14.0173 -2.87639
1 8.61107 8.68588 -8.58269
2 5.77806 11.639 -11.5658
2 5.76003 11.5994 -5.75068
3 5.7574 14.6128 -11.4987
3 8.65339 11.4241 -11.388
3 11.6421 14.6463 -0.0362266
3 5.68105 14.5696 -5.75287
3 8.65427 11.6443 -5.75029
3 11.6257 14.6352 -5.72453
3 11.3505 11.4678 -2.88425
3 5.73693 11.4842 -2.87083
4 8.37339 13.9897 2.84433
4 8.69355 14.0014 8.64993
1 8.60048 8.69063 2.84057
2 5.73907 11.5832 0.010589
2 5.79211 11.5842 5.76987
3 5.66132 14.5456 0.0830142
3 8.63362 11.6246 -0.00723989
3 11.461 14.5857 11.2428
3 5.59657 14.5487 5.6389
3 8.67808 11.7126 5.74322
3 11.7178 14.6325 5.76204
3 11.4685 11.43 8.62035
3 5.84807 11.5679 8.66194
4 8.85418 13.952 13.9274
4 8.76916 8.60098 13.8668
2 5.93534 11.6365 11.5757
3 6.0011 14.6269 11.5054
3 8.81318 11.4088 11.389
4 13.9496 13.9393 -8.63359
4 13.9961 13.9064 2.84067
4 -13.9961 -13.9064 -2.84067
4 -13.9496 -13.9393 8.63359
4 -8.85418 -13.952 -13.9274
4 -8.76916 -8.60098 -13.8668
3 -6.0011 -14.6269 -11.5054
3 -8.81318 -11.4088 -11.389
4 -8.69355 -14.0014 -8.64993
4 -8.37339 -13.9897 -2.84433
1 -8.60048 -8.69063 -2.84057
2 -11.7895 -11.6244 -11.5803
2 -11.5874 -11.645 -5.74184
3 -11.461 -14.5857 -11.2428
3 -5.66132 -14.5456 -0.0830142
3 -8.63362 -11.6246 0.00723989
3 -11.7178 -14.6325 -5.76204
3 -5.59657 -14.5487 -5.6389
3 -8.67808 -11.7126 -5.74322
3 -11.4685 -11.43 -8.62035
3 -5.84807 -11.5679 -8.66194
4 -8.49553 -14.0173 2.87639
4 -8.51346 -13.9789 8.61788
1 -8.61107 -8.68588 8.58269
2 -11.5511 -11.6677 0.0111818
2 -11.5663 -11.6487 5.76699
3 -11.6421 -14.6463 0.0362266
3 -5.7574 -14.6128 11.4987
3 -8.65339 -11.4241 11.388
3 -11.6257 -14.6352 5.72453
3 -5.68105 -14.5696 5.75287
3 -8.65427 -11.6443 5.75029
3 -11.3505 -11.4678 2.88425
3 -5.73693 -11.4842 2.87083
4 -8.64073 -13.9727 13.9194
2 -11.6182 -11.6637 11.6122
3 -11.2515 -14.6209 11.2415
3 -11.2483 -11.2916 14.5701
3 -5.74303 -11.5747 14.5528
4 -3.27591 -8.67329 -14.0228
4 -2.73208 -2.7504 -13.8824
3 -0.183437 -8.64447 -11.9689
3 -2.97975 -5.75531 -11.6457
3 -0.276747 -11.8411 -14.6369
3 -5.90364 -11.6054 -14.5468
1 -3.16994 -8.64818 -8.65116
1 -2.66174 -8.8174 -2.87333
4 -2.88165 -13.8226 -8.52503
1 -2.82131 -3.26028 -2.90426
2 -5.93534 -11.6365 -11.5757
2 -5.87488 -5.81587 -11.686
2 -5.79211 -11.5842 -5.76987
2 -5.77806 -5.76246 -5.82222
3 -5.93546 -8.70039 -11.3806
3 -3.04305 -11.3963 -11.3928
3 0.333745 -8.64317 -0.32709
3 -2.83394 -6.15958 -0.297923
3 -6.12592 -8.6618 -5.9651
3 -2.9069 -11.2253 -5.76796
3 0.324875 -8.65074 -5.43493
3 -2.8979 -6.23084 -5.53196
3 -5.69069 -5.67017 -8.73471
3 -0.279189 -6.25812 -8.6963
3 0.0308958 -11.7126 -2.8959
3 -5.72441 -11.2616 -2.88922
1 -3.04955 -8.60074 2.84649
1 -2.86343 -8.68203 8.69714
4 -2.83046 -13.7879 2.87618
1 -2.95191 -3.0955 8.66049
2 -5.73907 -11.5832 -0.010589
2 -5.71023 -5.75631 -0.0452786
2 -5.76003 -11.5994 5.75068
2 -5.75336 -5.79314 5.74097
3 -5.97238 -8.65372 0.154651
3 -2.85608 -11.2596 -0.00814623
3 -0.0309762 -8.71393 11.3635
3 -2.92839 -5.85007 11.3452
3 -6.05981 -8.67664 5.61705
3 -2.88468 -11.1627 5.76414
3 0.391073 -8.6352 6.09589
3 -2.88457 -6.1793 5.93042
3 -5.57413 -5.54859 2.85169
3 -0.0598975 -6.2128 2.88833
3 0.0264795 -11.7099 8.68684
3 -5.76067 -11.4244 8.63803
4 -2.8943 -8.6552 13.8822
4 -2.90185 -13.9629 13.9555
2 -5.77806 -11.639 11.5658
2 -5.80438 -5.8353 11.5922
3 -5.75076 -8.72248 11.4804
3 -2.89157 -11.4778 11.3418
3 -5.78926 -5.82604 14.5499
3 -0.209841 -6.02399 14.6192
4 2.82238 -2.98541 -13.8309
4 3.05612 3.09661 -13.9398
3 5.72646 -2.84096 -11.3872
3 2.95286 0.0624585 -11.7764
3 5.6205 -5.73536 -14.5248
3 0.116947 -5.47026 -14.5705
1 2.82659 -2.75114 -8.66342
1 3.29102 -3.16665 -2.93771
1 2.84981 -8.60071 -8.53791
1 3.25114 2.53812 -2.90833
2 -0.076677 -5.77224 -11.6068
2 0.0679876 0.0247831 -11.5869
2 -0.0170129 -5.76186 -5.81744
2 0.0440826 -0.0236258 -5.77331
3 -0.0236695 -2.87553 -11.1907
3 2.81147 -5.74463 -11.1968
3 6.31637 -2.90932 -0.336453
3 2.86759 -0.523012 -0.443579
3 -0.416096 -2.8959 -6.27228
3 2.89568 -5.46994 -6.04878
3 6.1134 -2.91802 -5.58506
3 2.95601 -0.429306 -5.37254
3 0.451069 0.320472 -8.666
3 5.37039 -0.011509 -8.63734
3 5.63196 -6.0867 -2.87229
3 0.287941 -5.38833 -2.91131
1 2.50416 -2.75699 2.93081
1 2.8471 -3.02708 8.92611
1 2.78412 -8.71218 2.89788
1 3.07389 2.89509 8.86416
2 0.0546287 -5.72705 0.00442167
2 -8.31624e-15 1.28527e-14 1.69745e-14
2 -0.00121148 -5.73748 5.77265
2 -0.0440826 0.0236258 5.77331
3 -0.509756 -2.8737 0.46635
3 2.95082 -5.29279 0.214748
3 5.72186 -2.85816 11.4645
3 2.83644 -0.0254603 11.2774
3 -0.575281 -2.86982 5.41215
3 2.86623 -5.15854 5.75556
3 6.381 -2.83037 6.03455
3 2.81024 -0.581457 6.1876
3 0.454828 0.407566 2.89385
3 5.339 -0.307165 2.91811
3 5.63987 -5.84079 8.78395
3 0.0590838 -5.58826 8.70692
4 2.87208 -2.7532 13.9652
4 2.71272 -8.60346 14.0128
2 -0.0592685 -5.81961 11.6616
2 -0.0679876 -0.0247831 11.5869
3 -0.0573515 -2.92776 11.6657
3 2.8265 -5.74659 11.6232
3 0.14568 0.103668 14.5554
3 5.51729 -0.0678181 14.6585
4 8.66638 2.85079 -13.754
4 8.5834 8.60173 -13.9089
3 11.4534 2.91595 -11.2286
3 8.68335 5.78526 -11.4508
3 11.2943 0.037294 -14.4333
3 6.14718 0.144028 -14.4971
1 8.57424 3.11098 -8.58135
1 8.73557 3.02137 -2.81614
1 8.6086 -3.01488 -8.59914
1 8.66584 8.64034 -2.85578
2 5.84931 0.0560534 -11.5403
2 5.80438 5.8353 -11.5922
2 5.87863 -0.0193814 -5.78106
2 5.75336 5.79314 -5.74097
3 5.81224 2.95056 -11.3075
3 8.7495 0.0375082 -11.0378
3 11.4363 2.96284 0.0150236
3 8.62579 5.69695 -0.132327
3 5.60617 2.88732 -5.91463
3 8.7817 0.0636242 -6.36966
3 11.531 2.91528 -5.73432
3 8.66049 5.63761 -5.62195
3 5.88277 5.93179 -8.64314
3 11.37 5.87992 -8.61209
3 11.0918 0.0271356 -2.87212
3 6.26166 0.21404 -2.89259
1 8.71142 3.1251 2.89097
1 8.63919 2.91964 8.74673
1 8.54793 -2.56873 2.9245
1 8.74852 8.61562 8.65846
2 5.71741 -0.060708 0.0161532
2 5.71023 5.75631 0.0452786
2 5.66559 -0.0024949 5.82903
2 5.77806 5.76246 5.82222
3 5.37932 2.85461 0.206079
3 8.5611 0.37571 0.409776
3 11.4003 2.89572 11.4817
3 8.76502 5.79301 11.3597
3 5.20394 2.89473 5.73459
3 8.5442 0.590788 5.60095
3 11.7458 2.9413 5.77983
3 8.69189 5.49824 6.00245
3 6.02763 5.85585 2.93049
3 11.2737 5.87732 2.89775
3 11.1911 0.0156658 8.78199
3 6.00725 0.19182 8.76076
4 8.65055 3.10609 14.0327
4 8.4254 -2.92368 14.0889
2 5.7223 0.0317001 11.7001
2 5.87488 5.81587 11.686
3 5.77523 2.92374 11.6539
3 8.61799 0.0443227 11.8398
3 6.09614 6.0159 14.6428
3 11.5869 5.78859 14.5602
4 13.9085 8.66969 -13.9258
3 14.5726 11.2698 -11.2345
3 11.4443 5.8161 -14.5282
4 13.865 8.6666 -8.50366
4 13.8772 8.65933 -2.86365
4 14.0571 3.28985 -8.48246
4 14.0098 13.9044 -2.88848
2 11.5924 5.81401 -11.5394
2 11.6182 11.6637 -11.6122
2 11.6063 5.81936 -5.73231
2 11.5663 11.6487 -5.76699
3 11.3899 8.69915 -11.3634
3 14.5572 5.7644 -11.5385
3 14.5344 11.4892 -0.0182802
3 11.3296 8.7152 -5.7061
3 14.5708 6.01726 -5.80126
3 14.5456 11.4911 -5.74393
3 11.3553 11.4505 -8.64375
3 11.5035 5.79417 -2.85657
4 13.8145 8.66275 2.84273
4 13.9705 8.6532 8.37856
4 13.9201 3.06503 2.76653
4 14.1055 13.8744 8.58401
2 11.5772 5.85105 0.0250329
2 11.5511 11.6677 -0.0111818
2 11.6368 5.82304 5.77654
2 11.5874 11.645 5.74184
3 11.3422 8.73824 -0.0162755
3 14.5314 5.94058 0.0833916
3 14.7339 11.1989 11.1643
3 11.2751 8.71072 5.72995
3 14.5956 6.08129 5.52689
3 14.5656 11.4503 5.64998
3 11.3176 11.485 2.86263
3 11.6999 5.7158 8.66857
4 14.0739 8.61739 13.8828
4 13.9861 2.86705 14.0024
2 11.7074 5.78065 11.5795
2 11.7895 11.6244 11.5803
3 11.5472 8.65914 11.3196
3 14.6901 5.63908 11.6169
3 11.4427 11.2507 14.5395
4 -3.09715 -14.101 -13.7895
4 -2.97997 -13.8535 -2.85771
4 -2.95854 -13.9082 8.38761
4 2.71196 -13.9259 -13.8813
4 2.94547 -8.37397 -13.9213
3 5.53733 -14.5517 -11.5325
3 2.73142 -11.2638 -11.4331
4 2.6053 -13.8577 -8.70788
4 3.09934 -13.9858 -2.86259
1 3.01607 -8.81841 -2.87161
2 -0.156084 -11.5221 -11.6478
2 -0.0235504 -11.5693 -5.80153
3 -0.139303 -14.505 -11.3915
3 6.02479 -14.4964 -0.0340182
3 2.92037 -11.6378 -0.0104553
3 -0.133745 -14.5322 -6.05276
3 5.91378 -14.6196 -5.55609
3 2.8655 -11.6089 -5.74682
3 -0.11395 -11.1595 -8.70064
3 5.59312 -11.5728 -8.64778
4 2.68285 -13.9342 2.87452
4 3.07359 -13.9515 8.72506
1 2.93071 -8.57864 8.80913
2 0.0296497 -11.5813 0.00660592
2 -0.00391599 -11.5479 5.78445
3 -0.142612 -14.5388 0.2263
3 5.68657 -14.5184 11.6309
3 2.86282 -11.3839 11.4775
3 -0.258033 -14.5184 5.58041
3 5.99901 -14.4642 5.93603
3 2.87536 -11.7174 5.79746
3 -0.0505956 -11.1794 2.89006
3 5.70385 -11.4553 2.94466
4 2.86953 -13.8583 14.1048
2 -0.0140125 -11.654 11.5983
3 0.07174 -14.6366 11.7494
3 -0.0720701 -11.4798 14.584
3 5.71072 -11.4864 14.686
4 8.38797 -8.5789 -13.9169
4 8.59034 -2.69718 -13.7929
3 11.229 -8.68387 -11.4382
3 8.58651 -5.68894 -11.5608
3 11.0299 -11.2774 -14.6195
3 5.5665 -11.4538 -14.5428
1 8.54411 -8.64434 -8.60096
1 8.60012 -8.70021 -3.07347
4 8.4693 -13.9465 -8.54136
1 8.84961 -3.04946 -3.00564
2 5.61596 -11.5595 -11.5648
2 5.69314 -5.73313 -11.562
2 5.73961 -11.6716 -5.75092
2 5.78554 -5.80677 -5.75939
3 5.675 -8.63199 -11.3449
3 8.49587 -11.4085 -11.3675
3 12.2134 -8.59855 -0.082942
3 8.73644 -6.32763 -0.23279
3 5.64038 -8.71116 -5.89382
3 8.61078 -11.422 -5.76747
3 11.4286 -8.71641 -5.84877
3 8.71223 -5.89475 -5.61422
3 5.96056 -5.73488 -8.63954
3 11.291 -5.83997 -8.67403
3 11.3813 -11.3535 -2.89955
3 5.81468 -11.3112 -2.85449
1 8.43437 -8.53517 2.94192
1 8.56463 -8.59765 8.88898
4 8.64737 -13.6781 2.94222
1 8.60204 -2.88697 8.94087
2 5.82723 -11.542 0.051657
2 5.85707 -5.75647 0.0437728
2 5.75714 -11.4856 5.84261
2 5.74137 -5.67023 5.83928
3 5.41393 -8.62578 0.231591
3 8.7169 -11.0791 0.0308153
3 11.3266 -8.62145 11.5763
3 8.59812 -5.73913 11.6002
3 5.2635 -8.56554 5.71338
3 8.64801 -11.0813 5.81436
3 11.8651 -8.55116 5.90064
3 8.5854 -6.30711 6.01458
3 6.05969 -5.49244 2.93306
3 11.1342 -5.65785 2.9525
3 11.3799 -11.2639 8.75138
3 5.75283 -11.2803 8.74971
4 8.51302 -8.5491 14.0808
4 8.57209 -13.903 14.0477
2 5.74282 -11.5492 11.6888
2 5.71076 -5.74321 11.7439
3 5.67771 -8.63091 11.6656
3 8.61465 -11.3493 11.5118
3 5.74392 -5.68513 14.7095
3 11.4889 -5.7182 14.7189
4 13.6777 -2.95209 -14.1068
4 13.7432 2.94019 -14.0357
3 14.6626 -0.0436409 -12.057
3 11.3645 -5.80963 -14.6046
4 14.0236 -3.30039 -8.59721
4 13.7832 -2.63332 -2.56669
4 13.8101 -8.64266 -8.73657
4 13.8633 2.82933 -2.75467
2 11.4859 -5.79493 -11.6128
2 11.7073 0.013368 -11.4423
2 11.6745 -5.81903 -5.78129
2 11.7082 0.00656495 -5.76302
3 11.4029 -2.88866 -11.2944
3 14.4527 -5.82194 -11.6164
3 14.4188 0.117305 0.00552095
3 11.5079 -2.91108 -5.76312
3 14.6294 -6.08503 -6.07294
3 14.6329 0.0149502 -5.13157
3 12.3529 -0.00614337 -8.60568
3 11.7086 -5.72202 -2.87952
4 13.6714 -2.81856 3.11129
4 13.6992 -2.80129 8.64898
4 14.0673 -8.00975 3.03477
4 13.9408 2.64841 8.73536
2 11.6203 -5.74589 0.0540414
2 11.4574 0.0518868 0.0455555
2 11.4389 -5.68711 5.87134
2 11.4446 0.0666969 5.86244
3 11.0889 -2.84893 0.0723544
3 14.545 -5.19536 0.358893
3 14.4992 -0.0365402 11.5613
3 10.9718 -2.80951 5.88916
3 14.4183 -5.36693 5.8689
3 14.4179 -0.207521 6.04681
3 11.4958 0.116401 2.95784
3 11.374 -5.6865 8.8045
4 13.934 -2.87034 14.0541
4 13.8884 -8.64226 14.0861
2 11.5265 -5.74535 11.7373
2 11.5243 0.0190273 11.7255
3 11.3102 -2.85927 11.5823
3 14.5094 -5.74125 11.6883
3 11.6474 0.0482403 14.7205
4 8.41202 -13.9214 -13.942
4 8.57788 -13.8133 -2.79935
4 8.58053 -13.7274 8.58758
4 13.7511 -8.71335 -14.0009
3 14.4103 -11.349 -11.3516
4 13.7503 -14.0514 -8.72282
4 13.5591 -14.2397 -2.93069
4 14.0707 -8.70393 -3.27319
2 11.4463 -11.664 -11.6698
2 11.5213 -11.6465 -5.80615
3 11.0474 -14.6214 -11.308
3 14.5909 -12.1191 -0.0901771
3 11.2823 -14.625 -5.84095
3 14.4808 -11.7789 -5.75976
3 11.2911 -11.4351 -8.69564
4 13.5642 -14.0615 2.92915
4 13.7488 -13.9753 8.73789
4 13.9379 -8.42367 8.90724
2 11.6661 -11.4563 0.0193077
2 11.5928 -11.4344 5.83344
3 11.1747 -14.448 0.0433078
3 14.5236 -11.2633 11.3973
3 11.2342 -14.4154 5.83057
3 14.5588 -11.8414 5.79679
3 11.4286 -11.1208 2.9201
2 11.5733 -11.5961 11.7324
3 11.1279 -14.5417 11.343
3 11.1952 -11.2457 14.7027
