5623
 Atoms. Timestep: 110810
4 -29.3447 29.0016 -23.6567
4 -28.4592 29.1186 -11.7661
4 -28.3693 28.9228 -0.6718
4 -29.0722 28.1903 11.0032
4 -28.3827 29.0986 23.4458
4 -28.8983 23.0457 -28.9972
3 -26.1887 23.592 -26.3872
3 -29.5112 25.9616 -26.0624
3 -26.0143 20.698 -29.4016
4 -28.8445 23.433 -23.5527
4 -28.7008 23.4783 -17.6915
4 -28.6785 17.6169 -23.5361
4 -28.6931 28.7573 -17.7914
3 -29.4138 20.2546 -26.6203
3 -26.3722 23.5415 -14.8411
3 -29.4631 26.6105 -14.7842
3 -29.3886 20.6263 -20.789
3 -26.0587 23.2995 -20.4866
3 -29.7452 26.1694 -20.4038
3 -26.5399 26.1792 -23.5508
3 -25.8345 20.2193 -17.5634
4 -28.9099 23.2877 -11.6219
4 -28.5063 23.0521 -6.0123
4 -28.7519 17.5446 -11.7
4 -28.6958 28.5912 -6.53273
3 -29.3633 20.4931 -15.1199
3 -26.1989 23.2917 -3.12391
3 -29.0426 26.3845 -3.56375
3 -29.2114 20.5457 -8.74387
3 -25.9993 23.1915 -8.83914
3 -29.2776 25.9895 -9.15343
3 -26.3001 26.1087 -11.8832
3 -25.8456 20.4661 -5.95693
4 -28.5652 23.3608 -0.103768
4 -28.7148 22.8753 5.74516
4 -28.4381 17.49 -0.413877
4 -28.4115 29.0579 5.25328
3 -29.2686 20.121 -3.39281
3 -26.277 23.2128 8.64607
3 -29.4818 25.6414 8.39809
3 -29.1244 20.3447 2.61519
3 -26.3109 23.3881 2.6811
3 -29.1307 26.6598 2.29317
3 -25.8713 26.2487 -0.263644
3 -26.1355 19.982 5.67576
4 -28.7795 23.6096 11.566
4 -28.7198 22.6994 16.9413
4 -28.595 17.7794 11.2997
4 -30.8049 25.3455 17.6289
3 -29.2529 20.358 8.50718
3 -26.6407 23.4914 19.8645
3 -29.2856 26.197 21.0323
3 -29.1384 20.6238 14.149
3 -25.92 23.6202 14.7114
3 -30.0368 25.9938 14.015
3 -26.0442 26.2549 11.5373
3 -25.9166 20.5571 17.4306
4 -28.5492 23.3155 23.1955
4 -28.6129 23.2019 29.0233
4 -28.6863 17.497 23.4752
3 -29.59 20.8115 20.443
3 -29.2947 20.3364 25.999
3 -26.1158 23.5083 26.026
3 -29.0796 26.0461 25.9285
3 -26.1658 26.2791 23.2951
3 -26.0436 20.6097 29.1567
4 -23.3382 28.1481 -29.2499
3 -20.7405 29.4139 -26.9285
3 -20.3492 26.0204 -29.1513
3 -26.1015 25.6396 -29.8206
4 -23.6165 28.704 -23.1216
4 -23.4881 29.0018 -17.5562
1 -23.4063 23.0191 -23.5024
2 -26.6313 26.6326 -26.5494
2 -26.8011 26.1064 -20.6389
3 -26.4929 29.3805 -25.9939
3 -23.478 26.2488 -26.052
3 -20.3944 29.623 -14.5857
3 -26.7268 29.2876 -20.7725
3 -23.4688 26.3151 -20.2805
3 -20.3681 29.4807 -20.2504
3 -20.5678 26.0227 -17.4981
3 -26.2419 26.3261 -17.6759
4 -23.2263 29.0008 -11.3526
4 -23.3757 28.6443 -5.89252
1 -23.1647 23.0158 -11.4259
2 -26.4088 26.4132 -14.8259
2 -26.181 25.9622 -9.04944
3 -26.0375 29.468 -14.7239
3 -23.4503 26.4652 -14.8305
3 -20.3352 29.3556 -3.32944
3 -26.0259 29.082 -8.82778
3 -23.2509 25.9059 -9.11842
3 -21.0528 29.4955 -8.47356
3 -20.3616 26.3157 -5.88452
3 -26.0301 25.7982 -6.1402
4 -22.9155 28.91 0.112495
4 -23.1158 28.6689 5.61064
1 -23.0013 23.2847 -0.221194
2 -26.0418 26.2859 -3.12597
2 -26.2256 26.25 2.69316
3 -26.1911 29.4464 -3.76765
3 -23.0055 25.8452 -3.00982
3 -20.4684 29.2598 8.67886
3 -26.0909 29.6233 2.64564
3 -23.1336 26.1344 2.81976
3 -20.275 29.3127 3.01611
3 -20.4327 25.5867 5.69016
3 -25.9472 26.0387 5.54715
4 -23.5452 28.8377 11.2179
4 -23.4566 29.0687 17.4185
1 -23.2977 23.8596 11.9215
2 -26.371 26.106 8.49452
2 -26.4236 26.4671 14.5854
3 -26.8232 29.3309 8.4554
3 -23.5557 26.3192 8.33467
3 -20.1369 29.2777 19.8652
3 -26.6066 29.3802 13.6241
3 -23.4738 26.9151 14.4582
3 -20.0132 29.0922 14.3943
3 -20.6139 25.8163 17.2184
3 -27.3303 26.4332 17.5632
4 -23.5022 28.6518 23.3019
4 -23.2669 28.9729 28.697
1 -23.3642 23.1872 23.429
2 -26.4475 26.51 20.4541
2 -26.188 26.5402 26.3558
3 -25.7206 29.7488 20.4931
3 -23.5047 26.1561 20.0703
3 -25.7719 29.4212 26.1628
3 -23.1534 26.3715 26.1306
3 -20.4616 29.5812 25.9007
3 -20.3681 26.5869 29.0649
3 -26.1156 26.1922 29.5078
4 -17.6192 28.9774 -22.5907
4 -17.0039 29.1855 -11.3384
4 -17.1095 28.5968 0.290218
4 -17.6681 28.7947 11.3582
4 -17.5543 28.9694 22.8492
4 -28.1397 12.04 -29.4741
4 -28.319 17.7191 -29.1359
3 -25.964 11.6242 -26.1478
3 -29.0573 14.7971 -26.9125
3 -25.8576 8.67299 -29.4659
4 -28.5688 11.5001 -23.2967
4 -28.5965 11.4125 -17.8458
4 -28.5936 5.62519 -23.42
4 -28.7552 17.2864 -17.7284
3 -29.2762 9.11745 -27.1458
3 -26.2046 11.6153 -14.3709
3 -29.4781 14.6067 -15.0525
3 -29.0645 8.30735 -20.6617
3 -26.1388 11.877 -20.7479
3 -29.4279 14.31 -20.5873
3 -26.273 14.7264 -23.6581
3 -26.1996 8.88076 -17.659
4 -29.1093 11.655 -11.679
4 -28.7184 11.8064 -5.85185
4 -28.8383 5.4861 -11.352
4 -28.6593 17.7523 -6.42259
3 -29.7542 8.93156 -15.3345
3 -26.4223 11.6817 -2.93093
3 -29.1939 14.8433 -3.06953
3 -29.4741 8.52381 -8.2596
3 -26.5785 11.56 -8.85601
3 -29.2385 14.9263 -8.7193
3 -26.5925 14.6074 -11.7791
3 -26.3228 8.8899 -5.6205
4 -28.5797 11.2734 0.100594
4 -28.8144 11.9897 5.7212
4 -29.1842 6.11645 -0.112416
4 -28.7161 17.5521 5.547
3 -29.506 8.8459 -2.45391
3 -26.4324 11.7244 8.6061
3 -29.3236 15.2717 8.67364
3 -29.5011 8.80375 2.82526
3 -26.2465 11.7073 3.18179
3 -29.319 15.0131 2.68507
3 -26.3043 14.2366 -0.0156659
3 -26.9463 8.53538 5.95027
4 -28.8192 11.4489 12.0244
4 -28.5821 11.7574 17.4315
4 -28.6102 5.72148 11.8297
4 -28.8513 17.4033 17.2705
3 -29.6403 8.85715 9.3797
3 -26.0695 11.8579 20.152
3 -29.3694 15.301 20.3389
3 -29.5698 9.30949 14.8349
3 -26.3491 11.9538 14.7229
3 -29.3769 14.5054 14.7145
3 -26.3948 14.4056 11.4495
3 -26.03 8.94256 17.5498
4 -28.576 11.7816 23.3323
4 -28.2362 11.9392 29.1477
4 -28.6526 5.96116 23.1942
4 -28.7675 17.9976 28.7637
3 -29.232 9.19062 20.7939
3 -29.3046 9.09745 26.5417
3 -26.1058 11.896 26.1114
3 -29.2809 14.8681 26.8669
3 -26.2506 14.6534 23.5253
3 -26.2671 8.73306 29.031
4 -23.2806 17.7259 -28.685
4 -23.3958 23.5759 -28.7518
3 -20.2725 17.5263 -25.8524
3 -23.3869 20.7411 -26.2533
3 -20.4037 15.0213 -29.1375
3 -25.8137 14.9414 -29.4355
1 -23.288 17.7184 -23.1696
1 -23.0753 17.6072 -17.827
1 -23.3447 11.8029 -23.3564
1 -23.4465 23.4312 -17.621
2 -26.1354 14.739 -26.6032
2 -26.3392 20.7391 -26.3022
2 -26.6605 14.7815 -20.624
2 -26.4562 20.409 -20.5352
3 -26.1845 17.7827 -26.2362
3 -23.2696 14.5979 -26.3231
3 -20.6606 17.7339 -14.7449
3 -23.285 20.5867 -14.3022
3 -26.6243 17.6118 -20.5503
3 -23.451 15.0032 -20.455
3 -20.3173 17.5124 -20.4086
3 -23.4269 20.418 -20.5592
3 -26.4418 20.5717 -23.4823
3 -20.5147 20.6857 -23.3917
3 -20.4549 14.7157 -17.6233
3 -26.1936 14.6575 -17.6206
1 -23.6182 17.3908 -11.8878
1 -23.5747 17.3015 -6.14016
1 -23.9185 11.3104 -11.6499
1 -23.2475 23.0707 -5.73382
2 -26.4322 14.4419 -14.7209
2 -26.2794 20.4842 -14.5937
2 -26.4787 14.4432 -8.90494
2 -26.2316 20.2918 -8.76529
3 -26.4927 17.4344 -14.7315
3 -23.481 14.9259 -14.8071
3 -20.6933 17.299 -3.23536
3 -23.2121 20.5785 -3.03929
3 -26.1614 17.5096 -9.31581
3 -23.5092 14.5612 -9.11172
3 -20.4733 17.4623 -8.02614
3 -23.2622 20.2493 -9.14371
3 -26.2259 20.7191 -11.6022
3 -20.3038 19.9048 -11.5473
3 -20.6849 13.7592 -6.09049
3 -25.988 14.5114 -5.96034
1 -23.2 17.37 -0.280467
1 -22.9332 17.8406 5.51165
1 -23.144 11.4168 0.309466
1 -23.301 23.2755 5.87297
2 -26.3579 14.5761 -2.97269
2 -26.2087 20.4345 -2.98594
2 -26.3203 14.5605 2.93897
2 -26.2132 20.4509 2.76833
3 -25.7209 17.4404 -3.1374
3 -23.3476 14.3566 -2.98084
3 -20.3554 17.5102 8.52716
3 -23.2519 20.7039 8.96931
3 -25.6378 17.5002 2.51745
3 -23.378 14.3426 2.79411
3 -20.0225 17.4353 3.12677
3 -23.0843 20.9865 2.86526
3 -26.096 20.486 -0.122473
3 -20.5177 19.7893 -0.0703757
3 -20.2297 14.5442 5.8454
3 -25.9782 15.0781 5.75157
1 -22.7287 17.5505 11.5124
1 -23.3834 17.506 17.3267
1 -23.7499 11.7146 11.8297
1 -23.4372 23.4544 17.6952
2 -26.3354 14.5899 8.64805
2 -26.1226 20.1691 8.70157
2 -26.3775 14.8278 14.3597
2 -26.0124 20.7853 14.4584
3 -25.6309 17.245 9.15702
3 -23.3049 14.5806 8.55867
3 -20.953 17.6427 20.2152
3 -23.4062 20.8286 20.5252
3 -26.3021 17.7214 14.5333
3 -23.3537 14.6232 14.2335
3 -20.1974 17.5685 15.1906
3 -23.2516 19.9965 14.0989
3 -26.2315 20.6167 11.6489
3 -19.8686 20.1929 11.6381
3 -20.3797 14.2387 17.4877
3 -26.4073 14.6871 17.5014
1 -23.3528 17.7574 23.4853
4 -23.5876 17.9235 29.0661
1 -23.3332 12.0905 23.4875
4 -23.4115 23.2016 28.5521
2 -26.3442 14.9181 20.3605
2 -26.7311 20.7055 20.5332
2 -26.3173 14.7209 26.5331
2 -26.3884 20.5479 26.1301
3 -26.5484 17.8228 20.3104
3 -23.3944 14.7295 20.4043
3 -26.1603 17.6436 26.3743
3 -23.3176 14.791 26.3492
3 -20.5108 17.7287 26.6793
3 -23.5154 20.4915 26.1673
3 -26.1482 20.7408 23.3121
3 -20.0356 20.4607 23.5392
3 -19.883 13.9572 29.4021
3 -26.0983 14.9647 29.5306
4 -17.7082 23.2042 -28.4392
4 -17.5629 28.3633 -28.6875
3 -14.9184 23.4963 -25.7105
3 -17.6629 26.2402 -25.6519
3 -14.862 20.4929 -29.2535
3 -21.1121 20.6773 -29.4127
1 -17.6976 23.3075 -23.092
1 -17.2774 23.4216 -17.2273
1 -17.6508 17.3554 -22.8551
4 -17.7175 28.7189 -17.0379
2 -20.4765 20.4864 -26.4593
2 -20.5419 26.3144 -26.1911
2 -20.435 20.5275 -20.1676
2 -20.5359 26.5107 -20.403
3 -20.6397 23.4622 -26.1673
3 -17.5202 20.5903 -26.1096
3 -14.6944 23.3452 -14.4484
3 -17.5676 26.2465 -14.597
3 -20.8243 23.4308 -21.0021
3 -17.6439 20.5764 -20.6056
3 -14.3408 23.116 -20.3666
3 -17.5639 25.9482 -20.0591
3 -20.505 26.8527 -23.379
3 -14.6177 26.3935 -23.2108
3 -14.9323 20.6371 -17.4935
3 -20.3925 20.7672 -17.317
1 -17.8419 23.9472 -11.5595
1 -17.7017 23.4729 -5.9293
1 -17.6078 17.6351 -11.996
4 -17.5805 28.7216 -5.84093
2 -20.3891 20.7433 -14.4763
2 -20.4858 26.633 -14.6565
2 -20.4435 20.2156 -8.69836
2 -20.4589 26.4017 -8.82924
3 -20.4476 23.6026 -14.4268
3 -17.4595 20.6586 -14.5001
3 -13.8837 23.3478 -2.29089
3 -17.3477 26.3902 -2.90536
3 -20.1634 23.391 -9.00243
3 -17.4373 20.3688 -8.88359
3 -14.7819 23.396 -9.25758
3 -17.5585 26.3227 -8.52659
3 -20.2895 26.6957 -11.7209
3 -14.8059 26.3478 -11.5671
3 -14.8817 20.9417 -5.8997
3 -20.1771 20.8001 -5.81228
1 -16.9612 23.2604 0.020167
1 -17.3709 23.3973 5.80495
1 -17.3841 17.808 0.386738
4 -17.8239 28.8045 5.9828
2 -20.28 20.3039 -2.90366
2 -20.2141 26.2576 -3.06288
2 -20.2772 20.4616 2.79635
2 -20.109 26.1854 2.76104
3 -20.0714 23.2695 -2.52991
3 -17.3963 20.398 -2.98591
3 -14.5731 23.4736 8.78786
3 -17.617 26.222 8.69927
3 -19.9087 23.2023 2.03896
3 -17.3283 20.5136 2.85524
3 -14.2196 23.2486 3.01507
3 -17.2998 25.9681 3.25172
3 -20.1172 26.5945 -0.0816281
3 -14.528 26.1505 0.0676919
3 -13.7642 20.3322 5.89792
3 -20.6863 20.875 5.77939
1 -17.3084 23.6232 11.5147
1 -17.4721 23.3347 17.3793
1 -17.192 17.3841 11.6636
4 -17.2717 28.5108 17.1959
2 -20.2294 20.4802 8.84582
2 -20.6571 26.3286 8.68929
2 -20.2917 20.2896 14.6009
2 -20.4981 26.1226 14.336
3 -20.3739 23.5235 9.38114
3 -17.4851 20.6435 8.18941
3 -14.364 23.302 20.2738
3 -17.4773 25.9722 20.1497
3 -20.6504 23.1863 14.2569
3 -17.433 20.6174 14.7986
3 -14.4911 23.3797 14.4003
3 -17.5135 26.1235 14.5973
3 -20.6044 26.5075 11.552
3 -14.657 26.9016 11.7952
3 -14.2109 20.7902 17.3038
3 -20.6266 20.6162 17.4376
1 -17.5161 23.3679 23.0592
4 -17.1075 23.5373 28.2474
1 -17.2614 17.5734 23.2892
4 -17.4623 28.4833 28.3555
2 -20.37 20.5349 20.321
2 -20.4191 26.4376 19.9869
2 -20.5359 20.5337 26.3987
2 -20.3926 26.5541 25.8756
3 -20.3996 23.356 20.4111
3 -17.5179 20.5059 20.1175
3 -20.4701 23.4864 26.4977
3 -17.3417 20.3369 26.2025
3 -14.613 23.4673 25.6468
3 -17.5778 26.088 25.6663
3 -20.7663 26.3606 22.9716
3 -14.5379 26.557 23.1238
3 -14.614 20.7772 29.3002
3 -20.586 20.6105 29.4951
4 -11.4384 28.8187 -28.7677
3 -8.66959 29.451 -26.2429
3 -8.5922 26.6969 -29.3514
3 -14.7903 25.7104 -28.9769
4 -11.4999 28.6789 -22.9577
4 -11.6114 28.6292 -17.254
1 -11.7496 23.5725 -23.4185
2 -14.8106 26.3467 -26.1055
2 -14.7588 26.2631 -20.2571
3 -14.5603 29.3241 -26.5279
3 -11.8685 26.2223 -26.1189
3 -8.40452 28.9625 -14.2537
3 -14.6919 29.4987 -19.9192
3 -11.866 26.0689 -20.1736
3 -8.7606 29.1236 -20.5529
3 -9.06007 25.9482 -17.4461
3 -14.685 26.2522 -17.3467
4 -11.6352 28.4063 -11.5207
4 -11.6521 28.592 -5.80011
1 -11.6635 22.7471 -11.7971
2 -14.7059 26.4225 -14.4535
2 -14.7505 26.2515 -8.6388
3 -14.849 29.3258 -14.4579
3 -11.8111 26.2864 -14.5051
3 -8.50266 29.0233 -2.71271
3 -14.354 29.2022 -8.583
3 -11.8348 26.0547 -8.73517
3 -8.70819 29.0379 -8.65999
3 -8.39614 25.9006 -5.80817
3 -14.5646 25.899 -5.62423
4 -11.2463 28.6488 0.0381623
4 -11.6143 28.6535 5.47381
1 -11.4565 22.9549 0.302788
2 -14.2284 26.392 -2.72407
2 -14.3154 26.1617 2.77545
3 -14.237 29.2461 -2.83224
3 -11.4448 26.1522 -3.01485
3 -8.88541 29.3625 8.77469
3 -14.3968 29.1561 2.9605
3 -11.4445 25.8932 2.98793
3 -8.73404 29.0953 2.86183
3 -8.81843 26.2419 5.84686
3 -14.4369 25.9984 5.74998
4 -11.5272 28.6292 11.7262
4 -11.7423 28.3379 17.2244
1 -11.4672 23.36 11.8165
2 -14.6255 26.5094 8.62567
2 -14.6584 26.2757 14.5709
3 -15.1301 29.38 8.3333
3 -11.6127 26.359 8.62819
3 -8.55751 29.2271 20.4743
3 -14.3439 29.4109 14.8227
3 -11.6742 26.0815 14.3453
3 -8.93609 29.374 14.3473
3 -8.9607 26.1841 17.5975
3 -14.4534 25.8656 17.4662
4 -11.8234 28.8309 23.1031
4 -11.888 28.8005 28.6316
1 -11.6107 22.8827 23.1599
2 -14.5857 26.1954 20.3863
2 -14.5928 26.4832 26.0423
3 -14.4539 29.0912 19.892
3 -11.691 26.1661 20.4706
3 -14.4622 29.6107 26.2553
3 -11.8014 26.1163 25.8598
3 -8.98011 29.708 26.6666
3 -8.65762 26.6661 29.5802
3 -14.6657 26.1729 29.0043
4 -5.78769 28.7308 -23.5261
4 -6.17521 28.4175 -11.2783
4 -5.81178 28.5645 0.108671
4 -5.6069 28.9267 12.0697
4 -5.68263 28.8804 23.3257
4 -29.2229 -0.0194024 -28.5318
4 -28.6416 6.07816 -29.1638
3 -26.4952 -0.171161 -26.1946
3 -29.3846 3.23554 -26.5739
3 -26.3909 -3.41307 -29.2839
4 -28.6677 0.281157 -23.1152
4 -28.8748 0.338319 -17.2658
4 -28.9823 -5.80699 -23.2661
4 -28.7481 6.02324 -17.8247
3 -29.5625 -3.04136 -25.8648
3 -26.1169 -0.0747476 -14.5884
3 -29.403 2.7338 -14.4274
3 -29.5754 -2.38702 -20.4533
3 -26.2511 0.014657 -20.268
3 -29.3197 2.7851 -20.6018
3 -26.1192 2.97471 -23.4234
3 -26.4677 -2.71215 -17.6067
4 -28.8058 -0.00896004 -11.7436
4 -28.9207 -0.339863 -5.83984
4 -28.3047 -5.91107 -11.601
4 -28.7642 5.77087 -6.04256
3 -29.3588 -2.86777 -14.7087
3 -26.02 -0.10729 -3.3995
3 -29.1889 2.51383 -3.3928
3 -29.2833 -3.22516 -8.77004
3 -26.115 0.00494645 -8.60457
3 -29.4774 2.62932 -8.99759
3 -26.2549 2.67238 -11.7321
3 -26.1841 -3.35003 -5.81798
4 -28.8925 0.239922 -0.526899
4 -28.9451 -0.760236 5.96682
4 -28.6677 -6.00564 0.801502
4 -29.0942 5.87316 6.20587
3 -29.3497 -2.8779 -3.06655
3 -26.4444 0.00118953 8.61246
3 -29.7842 3.39338 9.22494
3 -29.4044 -3.53979 3.53977
3 -26.6834 -0.146354 2.90192
3 -29.5939 2.53628 2.41562
3 -26.3797 2.79876 0.0457858
3 -26.1456 -3.12438 5.8983
4 -29.0768 0.410838 11.9549
4 -28.8202 0.0891473 17.4447
4 -28.661 -5.91459 12.0366
4 -29.0108 5.52025 17.4425
3 -29.2887 -2.78146 9.34068
3 -26.0204 0.0749831 20.6796
3 -29.2881 2.82769 20.0626
3 -29.4245 -3.05817 14.7701
3 -26.2484 -0.0624467 14.5619
3 -29.3121 3.01938 14.5073
3 -26.078 2.97853 11.7798
3 -26.5412 -2.7323 17.7752
4 -28.7832 0.386006 22.9358
4 -28.4878 -0.101117 28.3714
4 -28.6434 -6.14333 23.3286
4 -28.3941 5.84306 28.3074
3 -29.411 -2.72945 21.1666
3 -29.4138 -3.25057 26.757
3 -25.9263 -0.0353902 25.9843
3 -29.0881 2.88334 26.0022
3 -25.9511 3.12459 23.1501
3 -25.9692 -2.7017 29.2403
4 -23.1409 5.9308 -28.6893
4 -23.4274 11.8939 -28.8723
3 -20.4137 5.69939 -26.0172
3 -23.3006 8.77256 -26.3756
3 -20.5607 2.64493 -29.3361
3 -26.4454 2.93742 -29.682
1 -23.2829 5.90956 -23.8681
1 -23.6509 5.95788 -17.5302
1 -23.6871 -0.00655421 -23.2013
1 -23.2266 11.9393 -17.4077
2 -26.4385 2.80946 -26.4646
2 -26.3656 8.64051 -26.4778
2 -26.2735 2.90381 -20.5382
2 -25.9461 8.85099 -20.4873
3 -26.1758 5.71174 -26.533
3 -23.4468 2.70751 -26.1015
3 -19.8867 6.05785 -14.8562
3 -23.7912 8.32129 -14.8358
3 -26.0244 5.81309 -20.4945
3 -23.3066 2.93142 -20.6738
3 -19.9131 5.97361 -20.8975
3 -23.1994 8.47868 -20.1474
3 -26.3221 8.48132 -23.466
3 -20.7113 8.88384 -23.5607
3 -20.8509 3.18489 -17.5671
3 -26.0242 2.65133 -17.6427
1 -23.8484 5.83337 -11.7846
1 -23.5711 5.72805 -5.6448
1 -23.5365 -0.175604 -11.5801
1 -23.7598 11.6534 -5.80489
2 -26.2773 2.83485 -14.779
2 -26.8229 8.7451 -14.6899
2 -26.5317 2.82022 -8.80799
2 -26.5397 8.65357 -8.77815
3 -26.8681 5.84579 -14.5341
3 -23.4578 3.53159 -14.8107
3 -19.8962 5.83688 -3.46552
3 -23.6152 8.45743 -2.98287
3 -26.2884 5.77176 -8.82251
3 -23.401 3.07988 -8.56138
3 -20.5179 5.8933 -7.70557
3 -23.5897 8.6547 -8.95942
3 -26.8366 8.81027 -11.7862
3 -20.8746 7.95419 -11.775
3 -20.4263 2.3438 -5.73648
3 -26.4088 2.93753 -5.91881
1 -23.7482 5.73843 0.00097981
1 -23.388 5.35009 5.75773
1 -23.9732 0.0607008 0.187429
1 -23.2824 11.574 5.7247
2 -26.3773 2.78423 -2.81082
2 -26.5731 8.72593 -2.72343
2 -26.646 2.78254 3.07842
2 -26.4648 8.65487 3.13525
3 -26.6924 5.78773 -2.66474
3 -23.5464 3.49375 -2.95662
3 -20.9361 5.73434 8.4255
3 -23.4696 9.02921 8.5978
3 -26.3214 5.78632 3.09288
3 -23.3728 2.57283 3.14548
3 -20.1736 5.64286 3.33061
3 -23.5082 8.3619 3.35675
3 -26.0396 8.84195 0.186282
3 -20.8027 8.11863 -0.0264238
3 -20.5658 2.09568 5.78353
3 -26.7701 2.80148 5.96319
1 -23.4724 5.63533 11.4986
1 -23.4536 6.18314 17.556
1 -22.874 0.0774472 12.3557
1 -23.6103 12.1358 17.2164
2 -26.6217 2.88891 8.82291
2 -26.3829 8.79495 8.75572
2 -26.3649 2.8499 14.4842
2 -26.3356 8.93131 14.6176
3 -26.1071 5.74745 8.91224
3 -23.5101 2.3816 8.80653
3 -20.3412 5.67511 20.056
3 -23.4829 8.57905 20.3853
3 -26.3482 5.88096 14.9071
3 -23.2629 2.65836 14.9706
3 -20.414 6.08456 15.287
3 -23.4099 8.88959 14.7526
3 -26.0349 8.6465 11.7062
3 -20.3761 7.90729 11.7347
3 -20.3882 2.50841 17.6598
3 -26.1588 2.58057 17.3981
1 -22.6854 5.79961 23.0372
4 -23.1416 6.12551 28.27
1 -23.278 0.116455 23.489
4 -23.102 11.7094 28.1617
2 -26.3214 2.97888 20.1063
2 -26.4195 8.90927 20.3041
2 -26.0744 2.98004 25.9908
2 -26.1424 8.91102 26.0646
3 -26.7038 5.85964 20.1844
3 -23.3242 2.99135 20.1208
3 -25.9261 6.02541 25.6561
3 -23.1284 3.00473 26.0302
3 -20.0512 5.96213 26.1914
3 -23.1148 8.98545 25.6456
3 -26.3026 9.1461 23.2536
3 -19.9018 8.49974 23.1292
3 -20.1844 2.79548 29.4027
3 -26.2209 3.18407 29.1966
4 -17.2681 11.5807 -28.7719
4 -17.7892 17.5401 -28.4279
3 -14.535 11.9251 -26.1628
3 -17.4974 14.6318 -25.731
3 -14.7076 8.812 -29.2952
3 -20.5467 8.28604 -29.2876
1 -17.7857 11.6762 -23.511
1 -17.2841 11.6161 -17.8838
1 -17.2941 6.41193 -23.6637
1 -17.6506 17.8401 -17.2296
2 -20.3533 8.69424 -26.4151
2 -20.2923 14.5389 -26.3134
2 -20.293 8.95006 -20.3942
2 -20.5127 14.5671 -20.4719
3 -20.2142 11.5305 -26.4634
3 -17.3044 8.97668 -26.1487
3 -14.3506 11.7669 -14.3957
3 -17.6907 14.4417 -14.7782
3 -20.7965 11.7971 -20.6253
3 -17.2058 9.26282 -21.1172
3 -13.71 11.6543 -20.8381
3 -17.3256 13.9559 -20.7239
3 -20.6935 14.5325 -23.4657
3 -14.4191 15.1645 -23.1695
3 -14.1367 9.54493 -17.6139
3 -20.3971 9.29789 -17.4315
1 -17.8385 12.1415 -11.9148
1 -17.6153 11.4535 -6.01687
1 -17.7157 5.95611 -11.9085
1 -17.4816 17.8607 -5.86928
2 -20.3893 8.9823 -14.377
2 -20.492 14.6435 -14.5947
2 -20.761 8.67472 -8.85347
2 -20.5082 14.4845 -9.02079
3 -20.8102 11.8912 -14.1563
3 -17.3881 9.49399 -14.4129
3 -14.3758 11.628 -2.57309
3 -17.3448 14.1254 -3.38068
3 -20.5707 11.5034 -9.73052
3 -17.8376 8.83759 -8.785
3 -14.5721 11.5241 -9.70056
3 -17.6324 14.4424 -8.82809
3 -20.3352 15.2035 -11.7969
3 -14.8376 15.3105 -11.7249
3 -14.9877 8.95795 -5.88359
3 -20.822 9.29994 -5.90081
1 -17.3561 12.1042 -0.200865
1 -17.65 11.7967 5.95699
1 -17.7672 6.13983 -0.330645
1 -17.4588 17.3205 5.96092
2 -20.6084 8.70284 -3.03121
2 -20.3377 14.3472 -3.17777
2 -20.561 8.48753 3.00151
2 -20.4316 14.4616 2.81637
3 -20.6388 11.5328 -2.44158
3 -17.6156 9.16063 -2.80781
3 -14.8678 11.6166 8.66463
3 -17.4843 14.6527 8.96541
3 -20.6093 11.4629 2.89429
3 -17.5742 8.74138 2.90364
3 -14.6241 11.7133 2.35915
3 -17.6049 14.2686 2.85252
3 -20.4167 14.8482 0.0192982
3 -14.8175 14.9992 -0.326101
3 -14.6739 9.19441 5.69119
3 -20.5795 8.914 5.97168
1 -17.3608 11.7744 11.7448
1 -17.6651 11.5218 17.4368
1 -17.223 5.86246 12.1397
1 -17.6968 17.4028 17.7088
2 -20.5548 8.60844 8.86988
2 -20.4771 14.5597 8.76023
2 -20.5504 8.87123 14.4552
2 -20.4359 14.6627 14.6449
3 -20.2534 11.6424 8.99816
3 -17.6384 8.40921 8.7736
3 -14.2236 11.8683 21.0923
3 -17.49 14.6052 20.4077
3 -20.3076 11.8421 14.0086
3 -17.5468 8.7522 14.6561
3 -15.3708 11.6918 14.6605
3 -17.3476 14.9722 15.012
3 -20.0432 14.816 11.832
3 -14.1378 14.3431 11.8799
3 -14.2796 9.03208 17.669
3 -20.8503 9.52039 17.6123
1 -17.3057 11.457 23.3059
4 -17.0905 11.439 29.3418
1 -17.4341 5.82343 22.913
4 -17.2037 17.7484 28.9556
2 -20.4771 8.69451 20.2556
2 -20.4335 14.6425 20.3829
2 -20.1929 8.83544 26.2943
2 -20.3109 14.9372 26.3067
3 -20.5476 11.9032 21.234
3 -17.5352 8.97599 20.0509
3 -20.1883 12.07 25.7435
3 -17.4037 9.24541 26.5665
3 -14.5234 11.95 26.1646
3 -17.3407 15.2075 26.3358
3 -20.5459 15.2184 23.4543
3 -14.3104 15.1752 23.5266
3 -14.0382 8.9144 29.3488
3 -20.906 8.74205 29.1651
4 -11.5548 17.6264 -28.4895
4 -12.0254 23.3242 -28.599
3 -8.64408 17.5558 -26.081
3 -11.6049 20.4973 -26.3286
3 -8.67938 15.0033 -29.4495
3 -15.1824 14.7022 -29.0795
1 -11.3391 17.448 -23.481
1 -11.2631 17.3068 -17.2027
1 -11.4 11.577 -23.7519
1 -11.8283 23.0944 -17.0969
2 -14.6668 14.8106 -26.1726
2 -14.572 20.6163 -26.1854
2 -14.4013 14.4723 -20.4194
2 -14.6544 20.2185 -20.4047
3 -14.5431 17.6943 -26.265
3 -11.7022 14.7224 -26.4064
3 -8.15881 17.2364 -14.7618
3 -11.4837 19.8016 -14.4532
3 -15.1551 17.4168 -19.7701
3 -11.5093 15.2641 -20.4569
3 -8.31488 17.429 -20.8156
3 -11.8233 19.624 -20.268
3 -14.2084 20.4821 -23.2977
3 -8.91102 20.7649 -23.4287
3 -8.7401 14.3506 -17.8062
3 -14.6842 14.1024 -17.5535
1 -11.7752 17.2984 -11.336
1 -11.4565 17.1845 -6.06191
1 -11.5608 11.8163 -11.979
1 -11.6436 23.4994 -5.59768
2 -14.7616 14.7113 -14.6113
2 -14.4441 20.3985 -14.5255
2 -14.7169 14.3627 -8.90427
2 -14.5876 20.2227 -8.64096
3 -14.7621 17.5591 -15.1776
3 -11.5668 14.7391 -14.2714
3 -8.48698 17.3402 -3.54048
3 -11.5932 20.0136 -2.62095
3 -14.4419 17.2123 -8.20067
3 -11.591 14.161 -9.13342
3 -8.64942 17.3051 -8.46862
3 -11.6766 20.137 -8.57057
3 -14.3082 19.8575 -11.6747
3 -8.85036 20.0082 -11.7099
3 -9.01059 13.8424 -6.29035
3 -14.568 13.7477 -6.12009
1 -11.2973 17.3157 -0.331542
1 -11.369 17.1538 5.70787
1 -11.686 11.1985 -0.202334
1 -11.2078 23.3432 5.95751
2 -14.3441 14.463 -3.11825
2 -14.5087 20.4338 -3.0095
2 -14.5371 14.6718 2.65062
2 -14.2557 20.4789 2.82596
3 -14.4135 17.4032 -3.97359
3 -11.49 14.9341 -3.27519
3 -8.5522 17.4952 8.62255
3 -11.5114 20.3966 9.55539
3 -14.7552 17.6228 3.01756
3 -11.6683 14.7762 2.96849
3 -8.86272 17.4602 2.56332
3 -11.3021 20.1542 2.41404
3 -14.5868 20.0844 -0.0364568
3 -8.28843 20.194 -0.000375584
3 -8.72114 14.2009 5.91968
3 -14.4548 14.823 5.96094
1 -11.3522 17.1866 11.6637
1 -11.7263 17.3577 17.4743
1 -10.9204 11.7169 11.495
1 -11.4917 23.6099 17.5105
2 -14.5013 14.6637 9.02149
2 -14.4233 20.4854 8.79454
2 -14.4151 14.3489 14.8153
2 -14.4787 20.4023 14.5316
3 -14.0128 17.515 9.2044
3 -11.5665 14.4961 8.72231
3 -8.33177 17.6842 20.1965
3 -11.7945 19.8795 20.722
3 -14.1028 17.3014 14.5951
3 -11.4598 14.1574 14.7022
3 -8.93942 17.4401 14.6606
3 -11.5754 20.4022 14.1537
3 -15.1776 20.2965 11.7773
3 -8.17991 20.3311 11.7641
3 -8.65621 14.5289 17.5598
3 -14.402 14.6061 17.7836
1 -11.5265 17.658 23.6114
4 -11.3634 17.7111 28.6519
1 -11.341 12.3144 23.4902
4 -11.9528 23.2681 28.4063
2 -14.5911 14.6557 20.7357
2 -14.6112 20.3785 20.1804
2 -14.4671 14.8109 26.4525
2 -14.4997 20.5306 26.2043
3 -15.0104 17.5062 20.3587
3 -11.5687 14.9276 20.4231
3 -14.1281 17.8563 26.4485
3 -11.6035 14.5942 26.6355
3 -8.20358 17.5208 26.1683
3 -11.566 20.5029 25.9627
3 -14.7648 20.551 23.2286
3 -8.62405 20.4531 23.422
3 -8.46099 14.7418 29.2449
3 -14.4191 14.9971 29.2931
4 -5.64508 23.7 -28.6269
4 -5.75857 28.9001 -28.535
3 -2.83896 23.3329 -25.8223
3 -5.76979 26.1087 -25.841
3 -2.6295 20.9423 -29.2964
3 -8.68631 20.463 -29.4784
1 -5.7054 23.3647 -23.0332
1 -5.99121 23.5275 -17.3578
1 -5.68507 17.5006 -23.2103
4 -6.34836 28.5339 -17.6484
2 -8.67387 20.5894 -26.5338
2 -8.66672 26.4015 -26.3673
2 -8.99194 20.2275 -20.5938
2 -8.87626 25.9674 -20.3848
3 -8.97771 23.4613 -26.7837
3 -5.80465 20.7208 -26.4063
3 -2.85103 23.5516 -14.6091
3 -5.9319 26.018 -14.849
3 -9.44389 23.1265 -20.4167
3 -5.97347 20.6574 -20.3281
3 -2.7672 23.3772 -20.4153
3 -6.06821 26.0411 -20.279
3 -8.78963 25.9699 -23.3618
3 -3.04499 26.0494 -23.191
3 -2.75144 20.2123 -17.3593
3 -8.89038 20.288 -17.5049
1 -5.86547 23.5051 -11.9485
1 -5.83762 23.0494 -6.19673
1 -5.60005 17.7333 -11.4833
4 -5.91048 28.3143 -6.04134
2 -8.69863 20.1908 -14.5362
2 -8.82517 26.158 -14.4674
2 -8.68748 20.2067 -8.80424
2 -8.74771 26.0026 -8.63313
3 -8.95721 23.2875 -14.3995
3 -5.79975 20.9655 -14.4393
3 -2.41803 23.1596 -2.76876
3 -5.539 25.5406 -2.89695
3 -8.75184 23.0787 -9.18218
3 -5.70687 20.098 -8.19496
3 -2.54706 23.2924 -8.31516
3 -5.7618 25.5961 -8.90184
3 -8.86782 26.1486 -11.5268
3 -2.98196 26.08 -11.5331
3 -2.52841 20.5497 -5.75495
3 -8.8822 21.0425 -5.83481
1 -5.47301 23.2305 -0.261115
1 -5.62291 23.6622 6.14608
1 -5.63423 17.0725 -0.391912
4 -5.80006 28.9333 6.19914
2 -8.58703 20.4221 -2.98012
2 -8.48816 26.1539 -2.95883
2 -8.45683 20.4186 3.03995
2 -8.62735 26.1909 2.96859
3 -8.86103 23.2161 -2.57866
3 -5.72017 20.6411 -3.36842
3 -3.09764 23.0705 8.54085
3 -5.81808 26.3528 8.63982
3 -8.21526 23.2489 3.30085
3 -5.61558 20.388 3.97326
3 -2.65531 23.4533 2.80091
3 -5.55908 26.1893 2.9603
3 -8.42245 26.0028 0.0458924
3 -2.91235 26.2247 -0.00753424
3 -2.26255 20.4391 5.86962
3 -9.3323 20.3087 5.88664
1 -5.90955 23.3273 11.7755
1 -5.89228 23.3172 17.3113
1 -5.77573 17.5198 11.636
4 -6.00645 28.8953 17.6905
2 -8.69574 20.3718 8.82735
2 -8.7744 26.4634 8.75716
2 -8.66287 20.3977 14.7293
2 -8.84774 26.5602 14.5616
3 -8.67849 23.5874 8.91787
3 -5.74643 20.3938 8.53391
3 -2.4639 23.3819 20.3339
3 -5.74581 26.1032 20.4598
3 -8.69823 23.312 14.5325
3 -5.72357 20.233 15.154
3 -3.21393 23.1838 14.549
3 -5.90194 26.295 14.883
3 -8.57056 26.2076 11.7264
3 -3.16017 26.2046 11.571
3 -2.76997 20.4351 17.6786
3 -9.22913 20.9153 17.6087
1 -6.38648 23.5141 23.1329
4 -5.94176 23.4153 29.2842
1 -5.61072 17.6819 23.446
4 -5.71803 29.5079 28.5538
2 -8.77619 20.4796 20.4352
2 -8.6663 26.2935 20.6258
2 -8.6019 20.4936 26.3671
2 -8.99662 26.6218 26.5222
3 -9.2198 23.3698 20.5902
3 -5.80062 20.9555 20.4635
3 -8.60114 23.4834 26.4509
3 -5.72344 20.5115 26.924
3 -3.23536 23.6703 26.1668
3 -6.09373 26.6553 26.5532
3 -8.56531 26.4832 23.4828
3 -3.0004 26.1394 23.3855
3 -2.52565 20.2942 29.2924
3 -8.74417 20.3462 29.5368
4 -0.0819586 28.5 -29.1924
3 2.4683 29.3313 -26.64
3 2.92414 26.0727 -29.2225
3 -3.05036 26.4291 -29.0765
4 -0.366711 29.0576 -23.6157
4 0.0417953 28.948 -17.2955
1 -0.0525091 23.5188 -23.4093
2 -3.11676 26.1859 -26.0312
2 -3.14367 26.377 -20.1392
3 -3.13074 29.4304 -26.2009
3 -0.213948 26.2934 -26.3479
3 2.89552 29.6679 -14.4493
3 -3.5003 29.4157 -20.3286
3 -0.201064 26.3433 -20.1535
3 3.0433 29.3973 -20.2559
3 2.93303 26.2892 -17.2434
3 -2.85965 26.5141 -17.2026
4 0.0550648 29.0234 -11.4411
4 0.0109789 29.2269 -5.68976
1 0.0949921 23.2456 -11.6286
2 -3.04403 26.6273 -14.3347
2 -2.82243 26.2108 -8.52774
3 -2.78204 29.5693 -13.9509
3 -0.102144 26.5712 -14.0945
3 2.84594 29.5446 -3.33228
3 -3.3708 29.0015 -8.82133
3 0.188753 26.6968 -8.23148
3 3.07918 29.7741 -8.83608
3 2.9969 26.3423 -5.65483
3 -2.84321 26.3483 -5.75363
4 -0.291935 28.7634 -0.105507
4 0.237214 28.6525 5.75354
1 0.0948346 23.8278 -0.0220118
2 -2.85911 26.2255 -2.99177
2 -2.76176 26.3485 2.95598
3 -3.00898 29.0425 -2.82519
3 -0.0218281 26.3346 -2.94492
3 2.46811 29.3068 8.53574
3 -2.57699 29.5253 2.91208
3 0.0270364 26.0247 2.8812
3 2.86395 29.5717 3.32594
3 2.77266 25.9794 5.65237
3 -2.47615 26.2532 5.92985
4 0.166086 28.5525 11.4938
4 0.0981775 28.7978 17.1732
1 -0.652159 22.9558 11.6151
2 -2.88025 26.3159 8.72344
2 -2.94483 26.4167 14.4641
3 -2.4494 29.2121 8.79412
3 0.162111 25.4785 9.02045
3 3.07158 29.1984 20.1625
3 -2.66042 29.461 14.8634
3 -0.00584147 26.0345 14.3471
3 3.34641 29.5455 14.7599
3 2.87803 26.2469 17.323
3 -2.74571 26.0714 17.3405
4 0.192175 29.048 23.4635
4 0.437918 28.7669 28.5513
1 0.0525068 23.923 23.0779
2 -2.84467 26.3687 20.3223
2 -3.08019 26.6066 26.2435
3 -3.06186 29.2749 20.4973
3 -0.0642759 26.8924 20.3009
3 -2.50063 29.5662 26.3817
3 0.0958805 26.0518 26.2184
3 3.00124 29.589 26.0701
3 3.36624 26.479 29.0799
3 -2.74555 26.0209 29.1268
4 6.01938 28.4799 -23.2719
4 6.02695 29.2138 -11.4582
4 6.09491 28.9604 -0.0293332
4 5.88243 28.7699 10.8043
4 5.55517 28.5693 22.9649
4 -28.5862 -11.7992 -29.0507
4 -28.7857 -6.25938 -28.6996
3 -26.2153 -11.7225 -26.1345
3 -29.2904 -9.09082 -26.5227
3 -26.0462 -14.7251 -29.2769
4 -29.0104 -11.5502 -23.1733
4 -28.5733 -12.0783 -17.1665
4 -29.0495 -17.212 -22.9862
4 -28.7232 -5.62979 -17.4932
3 -29.4991 -14.9534 -26.7825
3 -26.4162 -11.8944 -14.4442
3 -29.3595 -8.494 -14.3691
3 -29.5045 -14.3079 -20.6716
3 -26.2369 -11.7195 -20.5433
3 -29.7707 -8.64237 -20.8643
3 -26.4961 -8.87894 -23.2961
3 -26.2958 -14.8973 -17.3919
4 -28.8772 -12.1775 -11.7719
4 -28.6672 -11.906 -5.68674
4 -28.8293 -17.9348 -11.5547
4 -29.0633 -5.87699 -6.19027
3 -29.2946 -15.126 -14.0092
3 -26.1171 -11.7184 -2.75194
3 -29.4967 -9.26368 -2.85153
3 -29.0627 -15.0474 -8.50996
3 -26.5726 -11.8866 -8.6572
3 -29.3185 -8.6082 -8.98085
3 -26.1968 -8.94259 -11.6993
3 -25.9224 -14.6256 -5.63873
4 -29.0792 -11.8085 0.0494907
4 -28.4031 -11.3872 5.97121
4 -28.7177 -17.3135 -0.19383
4 -28.67 -6.05539 5.87902
3 -29.4627 -14.6057 -2.84771
3 -26.2393 -11.5729 9.00504
3 -29.1141 -8.81566 8.45073
3 -29.3215 -14.9584 2.99989
3 -26.2118 -11.8467 3.14772
3 -29.3476 -9.06879 3.39721
3 -26.4713 -9.0571 0.0326352
3 -26.1199 -14.5209 5.97791
4 -28.7761 -12.1736 11.7941
4 -28.7243 -11.5002 17.5468
4 -28.4986 -17.4359 11.6954
4 -28.6288 -5.98291 17.2739
3 -28.9172 -14.8307 9.1828
3 -25.9158 -11.7245 20.6322
3 -28.9191 -8.38383 20.0513
3 -29.2089 -14.551 14.7125
3 -26.2805 -11.6907 14.6902
3 -28.9461 -8.64692 14.6109
3 -26.2134 -8.85114 11.7595
3 -26.1159 -14.4603 17.6416
4 -28.6324 -11.8855 22.8099
4 -29.3949 -12.1692 27.8917
4 -28.4166 -17.8863 23.1465
4 -28.8297 -6.27428 28.8843
3 -29.4082 -14.7953 20.46
3 -29.5001 -15.2783 25.8578
3 -26.4049 -11.7936 25.7999
3 -29.3418 -8.8762 26.1264