5623
 Atoms. Timestep: 808
4 -28.6047 28.4308 -23.2158
4 -28.9759 28.1962 -11.5938
4 -28.9206 28.5482 -2.01486e-13
4 -28.9759 28.1962 11.5938
4 -28.6047 28.4308 23.2158
4 -28.55 23.2722 -28.547
3 -25.997 23.2981 -26.0088
3 -29.1741 25.8106 -25.8238
3 -26.1117 20.4234 -29.1977
4 -28.3724 23.2504 -23.0826
4 -28.3187 23.2743 -17.4497
4 -28.5621 17.6205 -23.3372
4 -28.7184 28.2132 -17.4475
3 -29.1551 20.3412 -26.1841
3 -25.7369 23.3718 -14.5054
3 -29.1092 25.8273 -14.5646
3 -29.1089 20.6899 -20.4464
3 -25.7332 23.2775 -20.3171
3 -29.0501 25.8951 -20.345
3 -25.9039 26.0457 -23.2375
3 -26.098 20.3119 -17.442
4 -28.4923 23.2536 -11.6963
4 -28.7143 23.3826 -5.71668
4 -28.6773 17.6246 -11.4357
4 -28.8484 28.5485 -5.81201
3 -29.1862 20.8687 -14.5435
3 -26.1051 23.4152 -2.91851
3 -29.3678 26.1541 -2.9082
3 -29.3413 20.5665 -9.04144
3 -26.2186 23.3558 -8.64251
3 -29.3518 26.0507 -8.59166
3 -26.0437 26.0718 -11.5824
3 -26.5669 20.4018 -5.80409
4 -28.5917 23.358 -1.02388e-12
4 -28.7143 23.3826 5.71668
4 -28.7822 17.9206 -1.98271e-12
4 -28.8484 28.5485 5.81201
3 -29.353 20.7997 -2.65602
3 -26.2186 23.3558 8.64251
3 -29.3518 26.0507 8.59166
3 -29.353 20.7997 2.65602
3 -26.1051 23.4152 2.91851
3 -29.3678 26.1541 2.9082
3 -26.1978 26.1966 -1.80176e-13
3 -26.5669 20.4018 5.80409
4 -28.4923 23.2536 11.6963
4 -28.3187 23.2743 17.4497
4 -28.6773 17.6246 11.4357
4 -28.7184 28.2132 17.4475
3 -29.3413 20.5665 9.04144
3 -25.7332 23.2775 20.3171
3 -29.0501 25.8951 20.345
3 -29.1862 20.8687 14.5435
3 -25.7369 23.3718 14.5054
3 -29.1092 25.8273 14.5646
3 -26.0437 26.0718 11.5824
3 -26.098 20.3119 17.442
4 -28.3724 23.2504 23.0826
4 -28.55 23.2722 28.547
4 -28.5621 17.6205 23.3372
3 -29.1089 20.6899 20.4464
3 -29.1551 20.3412 26.1841
3 -25.997 23.2981 26.0088
3 -29.1741 25.8106 25.8238
3 -25.9039 26.0457 23.2375
3 -26.1117 20.4234 29.1977
4 -23.2864 28.5883 -28.5584
3 -20.3759 29.1887 -26.1652
3 -20.3664 26.1977 -29.2033
3 -25.8802 25.8878 -29.181
4 -23.0464 28.6018 -23.3632
4 -22.6637 28.7491 -17.5676
1 -23.2405 23.2122 -23.3663
2 -26.2332 26.2585 -26.212
2 -26.0696 26.2222 -20.3184
3 -25.8812 29.202 -25.8533
3 -23.2608 26.0094 -26.0606
3 -19.8607 29.2337 -14.938
3 -26.445 29.1941 -20.2842
3 -23.1911 26.4965 -20.3936
3 -20.0181 29.0447 -20.3725
3 -20.3378 25.7954 -17.4334
3 -25.7793 26.0674 -17.4084
4 -23.3946 28.8045 -11.1741
4 -23.2684 28.6365 -5.74709
1 -23.4584 23.2364 -11.3579
2 -26.1195 26.3278 -14.5065
2 -26.3583 26.2614 -8.68189
3 -26.8558 29.2502 -14.4119
3 -23.2958 27.0125 -14.4014
3 -20.5676 29.2842 -2.98793
3 -26.5524 29.2187 -8.77655
3 -23.4307 26.1855 -8.59177
3 -20.7202 29.3488 -8.38397
3 -20.5339 25.9668 -5.79756
3 -26.1516 26.16 -5.7824
4 -23.3485 28.7925 7.19266e-13
4 -23.2684 28.6365 5.74709
1 -23.5236 23.4651 -2.39808e-13
2 -26.39 26.3383 -2.89495
2 -26.39 26.3383 2.89495
3 -26.5852 29.3168 -2.88674
3 -23.484 26.3968 -2.84943
3 -20.7202 29.3488 8.38397
3 -26.5852 29.3168 2.88674
3 -23.484 26.3968 2.84943
3 -20.5676 29.2842 2.98793
3 -20.5339 25.9668 5.79756
3 -26.1516 26.16 5.7824
4 -23.3946 28.8045 11.1741
4 -22.6637 28.7491 17.5676
1 -23.4584 23.2364 11.3579
2 -26.3583 26.2614 8.68189
2 -26.1195 26.3278 14.5065
3 -26.5524 29.2187 8.77655
3 -23.4307 26.1855 8.59177
3 -20.0181 29.0447 20.3725
3 -26.8558 29.2502 14.4119
3 -23.2958 27.0125 14.4014
3 -19.8607 29.2337 14.938
3 -20.3378 25.7954 17.4334
3 -25.7793 26.0674 17.4084
4 -23.0464 28.6018 23.3632
4 -23.2864 28.5883 28.5584
1 -23.2405 23.2122 23.3663
2 -26.0696 26.2222 20.3184
2 -26.2332 26.2585 26.212
3 -26.445 29.1941 20.2842
3 -23.1911 26.4965 20.3936
3 -25.8812 29.202 25.8533
3 -23.2608 26.0094 26.0606
3 -20.3759 29.1887 26.1652
3 -20.3664 26.1977 29.2033
3 -25.8802 25.8878 29.181
4 -17.4536 28.3496 -23.1097
4 -17.3329 28.5737 -11.9565
4 -17.6687 28.5708 -2.54625e-13
4 -17.3329 28.5737 11.9565
4 -17.4536 28.3496 23.1097
4 -28.596 11.7954 -28.4852
4 -28.4889 17.5554 -28.6556
3 -26.0142 11.796 -25.97
3 -29.1911 14.7706 -26.237
3 -26.1701 8.99602 -29.1737
4 -28.3247 11.7154 -22.9592
4 -28.2544 11.7247 -17.4725
4 -28.4496 6.15053 -23.2366
4 -28.5799 17.2031 -17.4332
3 -29.1065 8.85042 -26.1145
3 -25.7285 11.8165 -14.5709
3 -29.1158 14.3305 -14.8165
3 -28.9615 9.05447 -20.4361
3 -25.5514 11.7461 -20.3397
3 -29.0106 14.2967 -20.2014
3 -26.1284 14.6885 -23.2629
3 -25.9602 8.82321 -17.4308
4 -28.4071 11.711 -11.7673
4 -28.4834 11.8966 -5.90031
4 -28.4638 6.27679 -11.6565
4 -28.657 17.2526 -5.87937
3 -28.9865 9.02202 -14.4809
3 -25.9198 11.8513 -2.94867
3 -29.2665 14.5163 -3.25038
3 -29.1008 9.13073 -9.08518
3 -25.8666 11.8179 -8.70791
3 -29.1785 14.6477 -8.63927
3 -26.255 14.7135 -11.6363
3 -26.3305 8.8912 -5.819
4 -28.4909 11.7026 3.6559e-12
4 -28.4834 11.8966 5.90031
4 -28.5046 6.26776 1.964e-12
4 -28.657 17.2526 5.87937
3 -29.1283 9.05096 -2.63772
3 -25.8666 11.8179 8.70791
3 -29.1785 14.6477 8.63927
3 -29.1283 9.05096 2.63772
3 -25.9198 11.8513 2.94867
3 -29.2665 14.5163 3.25038
3 -26.464 14.7966 -4.36226e-14
3 -26.3305 8.8912 5.819
4 -28.4071 11.711 11.7673
4 -28.2544 11.7247 17.4725
4 -28.4638 6.27679 11.6565
4 -28.5799 17.2031 17.4332
3 -29.1008 9.13073 9.08518
3 -25.5514 11.7461 20.3397
3 -29.0106 14.2967 20.2014
3 -28.9865 9.02202 14.4809
3 -25.7285 11.8165 14.5709
3 -29.1158 14.3305 14.8165
3 -26.255 14.7135 11.6363
3 -25.9602 8.82321 17.4308
4 -28.3247 11.7154 22.9592
4 -28.596 11.7954 28.4852
4 -28.4496 6.15053 23.2366
4 -28.4889 17.5554 28.6556
3 -28.9615 9.05447 20.4361
3 -29.1065 8.85042 26.1145
3 -26.0142 11.796 25.97
3 -29.1911 14.7706 26.237
3 -26.1284 14.6885 23.2629
3 -26.1701 8.99602 29.1737
4 -23.1788 17.5097 -28.5878
4 -23.1969 23.2096 -28.5832
3 -20.3564 17.5362 -26.1486
3 -23.2713 20.3928 -26.1519
3 -20.5927 14.6625 -29.2454
3 -26.1338 14.6247 -29.1712
1 -23.1709 17.6068 -23.3742
1 -23.1709 17.4617 -17.4131
1 -23.1883 11.8245 -23.3956
1 -23.2251 23.0539 -17.4227
2 -26.214 14.6735 -26.1801
2 -26.1901 20.4277 -26.1992
2 -26.0376 14.6296 -20.3401
2 -26.1331 20.3748 -20.345
3 -25.9775 17.5492 -26.066
3 -23.2865 14.6765 -26.0501
3 -19.919 17.667 -14.7442
3 -23.3391 20.0141 -14.6917
3 -26.4236 17.5022 -20.3752
3 -23.169 15.2323 -20.5595
3 -19.7214 17.5098 -20.3413
3 -23.2094 19.8922 -20.2801
3 -25.9632 20.3956 -23.2672
3 -20.4351 20.3502 -23.2952
3 -20.6223 14.6342 -17.4377
3 -25.7496 14.6307 -17.4411
1 -23.5221 17.6524 -11.5871
1 -23.3081 17.4954 -5.86565
1 -23.4439 12.0822 -11.6014
1 -23.3613 23.3224 -5.76283
2 -26.1834 14.6964 -14.554
2 -26.2498 20.4696 -14.5283
2 -26.2232 14.689 -8.71708
2 -26.3922 20.4664 -8.6897
3 -26.4972 17.5775 -14.4191
3 -23.2685 15.1454 -14.3023
3 -20.1291 17.6662 -3.26401
3 -23.468 20.2444 -3.26874
3 -26.2063 17.5894 -8.68265
3 -23.3115 15.0147 -9.0001
3 -20.1917 17.6701 -8.34629
3 -23.4331 20.4573 -8.39634
3 -26.0178 20.469 -11.5986
3 -20.8779 20.2843 -11.5573
3 -20.8789 14.5154 -5.79744
3 -25.8694 14.6704 -5.82043
1 -23.6837 17.6918 -6.19449e-13
1 -23.3081 17.4954 5.86565
1 -23.6006 12.2034 -3.18807e-13
1 -23.3613 23.3224 5.76283
2 -26.3299 14.7293 -2.92766
2 -26.392 20.5152 -2.91262
2 -26.3299 14.7293 2.92766
2 -26.392 20.5152 2.91262
3 -26.4776 17.6257 -2.8676
3 -23.4068 15.119 -2.62668
3 -20.1917 17.6701 8.34629
3 -23.4331 20.4573 8.39634
3 -26.4776 17.6257 2.8676
3 -23.4068 15.119 2.62668
3 -20.1291 17.6662 3.26401
3 -23.468 20.2444 3.26874
3 -26.025 20.5963 -4.40408e-14
3 -21.0094 20.2581 1.36664e-13
3 -20.8789 14.5154 5.79744
3 -25.8694 14.6704 5.82043
1 -23.5221 17.6524 11.5871
1 -23.1709 17.4617 17.4131
1 -23.4439 12.0822 11.6014
1 -23.2251 23.0539 17.4227
2 -26.2232 14.689 8.71708
2 -26.3922 20.4664 8.6897
2 -26.1834 14.6964 14.554
2 -26.2498 20.4696 14.5283
3 -26.2063 17.5894 8.68265
3 -23.3115 15.0147 9.0001
3 -19.7214 17.5098 20.3413
3 -23.2094 19.8922 20.2801
3 -26.4972 17.5775 14.4191
3 -23.2685 15.1454 14.3023
3 -19.919 17.667 14.7442
3 -23.3391 20.0141 14.6917
3 -26.0178 20.469 11.5986
3 -20.8779 20.2843 11.5573
3 -20.6223 14.6342 17.4377
3 -25.7496 14.6307 17.4411
1 -23.1709 17.6068 23.3742
4 -23.1788 17.5097 28.5878
1 -23.1883 11.8245 23.3956
4 -23.1969 23.2096 28.5832
2 -26.0376 14.6296 20.3401
2 -26.1331 20.3748 20.345
2 -26.214 14.6735 26.1801
2 -26.1901 20.4277 26.1992
3 -26.4236 17.5022 20.3752
3 -23.169 15.2323 20.5595
3 -25.9775 17.5492 26.066
3 -23.2865 14.6765 26.0501
3 -20.3564 17.5362 26.1486
3 -23.2713 20.3928 26.1519
3 -25.9632 20.3956 23.2672
3 -20.4351 20.3502 23.2952
3 -20.5927 14.6625 29.2454
3 -26.1338 14.6247 29.1712
4 -17.5383 23.1545 -28.6154
4 -17.5071 28.6193 -28.559
3 -14.6278 23.2726 -26.2684
3 -17.5006 26.0111 -26.0739
3 -14.7007 20.3471 -29.2238
3 -20.3823 20.4484 -29.2256
1 -17.4967 23.2446 -23.4581
1 -17.3078 23.2066 -17.3658
1 -17.576 17.4978 -23.4855
4 -17.4167 28.2943 -17.5992
2 -20.3898 20.4132 -26.2491
2 -20.3859 26.2132 -26.2168
2 -20.2989 20.3755 -20.3308
2 -20.3235 26.0597 -20.3503
3 -20.3658 23.2937 -26.1371
3 -17.5135 20.3978 -26.065
3 -14.314 23.2108 -14.7527
3 -17.5627 25.7899 -14.5783
3 -20.9815 23.2193 -20.4729
3 -17.4771 21.1081 -20.5029
3 -13.9758 23.1535 -20.2569
3 -17.4434 25.6063 -20.3916
3 -20.3296 26.0123 -23.2884
3 -14.6098 25.8939 -23.3095
3 -15.0604 20.1115 -17.4187
3 -20.2458 20.6853 -17.404
1 -17.712 23.632 -11.4828
1 -17.4434 23.465 -5.86761
1 -17.8445 18.0522 -11.5526
4 -17.8555 28.6421 -5.67754
2 -20.4785 20.5517 -14.4758
2 -20.4611 26.317 -14.5335
2 -20.5131 20.5619 -8.6442
2 -20.5123 26.3994 -8.69275
3 -21.1042 23.4374 -14.228
3 -17.6323 21.0625 -14.1211
3 -14.4501 23.4232 -3.30639
3 -17.6872 25.9975 -2.94842
3 -20.622 23.4735 -8.99341
3 -17.6472 20.8776 -9.05742
3 -14.5327 23.4243 -8.40347
3 -17.6072 26.2379 -8.68935
3 -20.4038 26.5148 -11.609
3 -14.7268 25.9231 -11.6548
3 -15.3115 20.2749 -5.78898
3 -20.2737 21.0089 -5.78192
1 -17.9168 23.6446 1.12158e-13
1 -17.4434 23.465 5.86761
1 -17.932 18.0641 1.12082e-13
4 -17.8555 28.6421 5.67754
2 -20.5648 20.5319 -2.91263
2 -20.5794 26.3145 -2.90801
2 -20.5648 20.5319 2.91263
2 -20.5794 26.3145 2.90801
3 -20.9223 23.4171 -2.62107
3 -17.7009 20.9708 -2.4774
3 -14.5327 23.4243 8.40347
3 -17.6072 26.2379 8.68935
3 -20.9223 23.4171 2.62107
3 -17.7009 20.9708 2.4774
3 -14.4501 23.4232 3.30639
3 -17.6872 25.9975 2.94842
3 -20.5697 26.3439 -1.75662e-15
3 -14.9055 25.9739 -3.12724e-14
3 -15.3115 20.2749 5.78898
3 -20.2737 21.0089 5.78192
1 -17.712 23.632 11.4828
1 -17.3078 23.2066 17.3658
1 -17.8445 18.0522 11.5526
4 -17.4167 28.2943 17.5992
2 -20.5131 20.5619 8.6442
2 -20.5123 26.3994 8.69275
2 -20.4785 20.5517 14.4758
2 -20.4611 26.317 14.5335
3 -20.622 23.4735 8.99341
3 -17.6472 20.8776 9.05742
3 -13.9758 23.1535 20.2569
3 -17.4434 25.6063 20.3916
3 -21.1042 23.4374 14.228
3 -17.6323 21.0625 14.1211
3 -14.314 23.2108 14.7527
3 -17.5627 25.7899 14.5783
3 -20.4038 26.5148 11.609
3 -14.7268 25.9231 11.6548
3 -15.0604 20.1115 17.4187
3 -20.2458 20.6853 17.404
1 -17.4967 23.2446 23.4581
4 -17.5383 23.1545 28.6154
1 -17.576 17.4978 23.4855
4 -17.5071 28.6193 28.559
2 -20.2989 20.3755 20.3308
2 -20.3235 26.0597 20.3503
2 -20.3898 20.4132 26.2491
2 -20.3859 26.2132 26.2168
3 -20.9815 23.2193 20.4729
3 -17.4771 21.1081 20.5029
3 -20.3658 23.2937 26.1371
3 -17.5135 20.3978 26.065
3 -14.6278 23.2726 26.2684
3 -17.5006 26.0111 26.0739
3 -20.3296 26.0123 23.2884
3 -14.6098 25.8939 23.3095
3 -14.7007 20.3471 29.2238
3 -20.3823 20.4484 29.2256
4 -11.7534 28.5135 -28.6278
3 -8.96977 29.1884 -26.2237
3 -8.81905 26.1323 -29.1424
3 -14.6644 26.219 -29.2376
4 -11.8778 28.5391 -23.3216
4 -11.5709 28.517 -17.2907
1 -11.7908 23.1493 -23.3817
2 -14.6228 26.1826 -26.2402
2 -14.5499 26.0484 -20.3836
3 -14.5943 29.1511 -26.166
3 -11.7494 25.9671 -26.074
3 -8.71472 29.0252 -14.6907
3 -14.8665 29.0326 -20.5246
3 -11.6935 26.4565 -20.3291
3 -8.43272 29.0091 -20.1511
3 -8.82366 25.7318 -17.4145
3 -14.544 26.0006 -17.4827
4 -11.8613 28.5727 -11.7307
4 -11.4104 28.5954 -5.89093
1 -11.911 23.4494 -11.6349
2 -14.6621 26.1271 -14.5757
2 -14.6996 26.4052 -8.7441
3 -14.6641 29.0852 -14.6667
3 -11.7701 26.1454 -14.4965
3 -8.67888 29.115 -3.20231
3 -14.7115 29.3289 -9.31656
3 -11.813 26.2831 -8.77425
3 -8.64824 29.0488 -8.59025
3 -8.92495 25.7275 -5.8148
3 -14.7265 26.6316 -5.84198
4 -12.2106 28.7048 4.44298e-14
4 -11.4104 28.5954 5.89093
1 -12.005 23.6622 -6.82316e-15
2 -14.7865 26.3519 -2.93717
2 -14.7865 26.3519 2.93717
3 -15.0827 29.2963 -2.61152
3 -11.891 26.4322 -2.8879
3 -8.64824 29.0488 8.59025
3 -15.0827 29.2963 2.61152
3 -11.891 26.4322 2.8879
3 -8.67888 29.115 3.20231
3 -8.92495 25.7275 5.8148
3 -14.7265 26.6316 5.84198
4 -11.8613 28.5727 11.7307
4 -11.5709 28.517 17.2907
1 -11.911 23.4494 11.6349
2 -14.6996 26.4052 8.7441
2 -14.6621 26.1271 14.5757
3 -14.7115 29.3289 9.31656
3 -11.813 26.2831 8.77425
3 -8.43272 29.0091 20.1511
3 -14.6641 29.0852 14.6667
3 -11.7701 26.1454 14.4965
3 -8.71472 29.0252 14.6907
3 -8.82366 25.7318 17.4145
3 -14.544 26.0006 17.4827
4 -11.8778 28.5391 23.3216
4 -11.7534 28.5135 28.6278
1 -11.7908 23.1493 23.3817
2 -14.5499 26.0484 20.3836
2 -14.6228 26.1826 26.2402
3 -14.8665 29.0326 20.5246
3 -11.6935 26.4565 20.3291
3 -14.5943 29.1511 26.166
3 -11.7494 25.9671 26.074
3 -8.96977 29.1884 26.2237
3 -8.81905 26.1323 29.1424
3 -14.6644 26.219 29.2376
4 -5.88742 28.305 -22.9117
4 -5.95852 28.3056 -11.5939
4 -6.0038 28.3412 -1.06426e-13
4 -5.95852 28.3056 11.5939
4 -5.88742 28.305 22.9117
4 -28.4578 0.256603 -28.4018
4 -28.4146 6.04043 -28.5967
3 -25.8836 0.287472 -25.8784
3 -29.0981 3.24819 -26.2078
3 -26.0492 -2.5618 -29.0756
4 -28.2006 0.144906 -22.8519
4 -28.0984 0.211228 -17.3663
4 -28.2457 -5.45105 -23.0898
4 -28.3912 5.78516 -17.3246
3 -28.9651 -2.651 -25.9726
3 -25.5323 0.283386 -14.5154
3 -28.9125 2.90402 -14.755
3 -28.7737 -2.57733 -20.3297
3 -25.4041 0.229193 -20.2809
3 -28.8825 2.74133 -20.1065
3 -26.0721 3.18014 -23.1976
3 -25.7799 -2.67505 -17.3744
4 -28.1845 0.178675 -11.6245
4 -28.1885 0.291805 -5.78798
4 -28.2382 -5.21378 -11.6211
4 -28.4434 5.67796 -5.78862
3 -28.7759 -2.48357 -14.3907
3 -25.5756 0.305119 -2.93992
3 -28.9528 2.90309 -3.11409
3 -28.8322 -2.46286 -8.97345
3 -25.5665 0.287588 -8.66782
3 -28.9506 2.87973 -8.48401
3 -26.0868 3.21381 -11.6017
3 -25.9933 -2.6848 -5.79912
4 -28.2186 0.223416 -1.34229e-12
4 -28.1885 0.291805 5.78798
4 -28.2727 -5.18453 -7.28668e-13
4 -28.4434 5.67796 5.78862
3 -28.8443 -2.42162 -2.67688
3 -25.5665 0.287588 8.66782
3 -28.9506 2.87973 8.48401
3 -28.8443 -2.42162 2.67688
3 -25.5756 0.305119 2.93992
3 -28.9528 2.90309 3.11409
3 -26.1032 3.24107 2.50534e-14
3 -25.9933 -2.6848 5.79912
4 -28.1845 0.178675 11.6245
4 -28.0984 0.211228 17.3663
4 -28.2382 -5.21378 11.6211
4 -28.3912 5.78516 17.3246
3 -28.8322 -2.46286 8.97345
3 -25.4041 0.229193 20.2809
3 -28.8825 2.74133 20.1065
3 -28.7759 -2.48357 14.3907
3 -25.5323 0.283386 14.5154
3 -28.9125 2.90402 14.755
3 -26.0868 3.21381 11.6017
3 -25.7799 -2.67505 17.3744
4 -28.2006 0.144906 22.8519
4 -28.4578 0.256603 28.4018
4 -28.2457 -5.45105 23.0898
4 -28.4146 6.04043 28.5967
3 -28.7737 -2.57733 20.3297
3 -28.9651 -2.651 25.9726
3 -25.8836 0.287472 25.8784
3 -29.0981 3.24819 26.2078
3 -26.0721 3.18014 23.1976
3 -26.0492 -2.5618 29.0756
4 -23.0692 5.96749 -28.5366
4 -23.2026 11.845 -28.5629
3 -20.2958 6.04209 -26.0556
3 -23.2312 8.93466 -26.2217
3 -20.4777 3.15223 -29.1685
3 -26.0218 3.11023 -29.1023
1 -23.0958 6.0985 -23.309
1 -23.0803 5.90896 -17.3354
1 -23.0231 0.35077 -23.2869
1 -23.097 11.6265 -17.3361
2 -26.1188 3.16261 -26.1103
2 -26.1394 8.91607 -26.1732
2 -25.9193 3.10299 -20.2793
2 -25.9682 8.84896 -20.3222
3 -25.8925 6.04224 -26.0185
3 -23.1861 3.17121 -25.9624
3 -19.6987 6.15306 -14.7942
3 -23.1014 8.59434 -14.7393
3 -26.2598 5.97249 -20.3121
3 -23.0352 3.6427 -20.5508
3 -19.5811 6.05163 -20.2687
3 -23.0661 8.3168 -20.1903
3 -25.8355 8.9048 -23.2456
3 -20.4587 8.88943 -23.2648
3 -20.5011 3.10932 -17.4052
3 -25.5831 3.08252 -17.3909
1 -23.3202 6.19279 -11.5888
1 -23.0499 5.90745 -5.79776
1 -23.2142 0.620745 -11.5927
1 -23.2963 11.617 -5.80585
2 -25.971 3.15149 -14.505
2 -26.0267 8.92468 -14.5294
2 -26.0094 3.15843 -8.68754
2 -26.155 8.92756 -8.71404
3 -26.0819 6.03752 -14.4658
3 -23.0444 3.56221 -14.2118
3 -19.8028 6.18367 -3.27771
3 -23.2355 8.64269 -3.25615
3 -26.2005 6.04234 -8.74184
3 -23.0844 3.58358 -8.98228
3 -19.805 6.16102 -8.34843
3 -23.2113 8.62419 -8.38464
3 -25.7617 9.03024 -11.6219
3 -20.5803 8.75659 -11.5859
3 -20.5842 3.00196 -5.79426
3 -25.6005 3.1221 -5.80105
1 -23.4296 6.20067 2.70838e-13
1 -23.0499 5.90745 5.79776
1 -23.2714 0.652493 2.10801e-13
1 -23.2963 11.617 5.80585
2 -26.0124 3.1752 -2.91309
2 -26.1725 8.95116 -2.91626
2 -26.0124 3.1752 2.91309
2 -26.1725 8.95116 2.91626
3 -26.1834 6.05985 -2.86881
3 -23.0906 3.6004 -2.61498
3 -19.805 6.16102 8.34843
3 -23.2113 8.62419 8.38464
3 -26.1834 6.05985 2.86881
3 -23.0906 3.6004 2.61498
3 -19.8028 6.18367 3.27771
3 -23.2355 8.64269 3.25615
3 -25.7999 9.07051 2.37453e-13
3 -20.6659 8.69381 -2.18431e-13
3 -20.5842 3.00196 5.79426
3 -25.6005 3.1221 5.80105
1 -23.3202 6.19279 11.5888
1 -23.0803 5.90896 17.3354
1 -23.2142 0.620745 11.5927
1 -23.097 11.6265 17.3361
2 -26.0094 3.15843 8.68754
2 -26.155 8.92756 8.71404
2 -25.971 3.15149 14.505
2 -26.0267 8.92468 14.5294
3 -26.2005 6.04234 8.74184
3 -23.0844 3.58358 8.98228
3 -19.5811 6.05163 20.2687
3 -23.0661 8.3168 20.1903
3 -26.0819 6.03752 14.4658
3 -23.0444 3.56221 14.2118
3 -19.6987 6.15306 14.7942
3 -23.1014 8.59434 14.7393
3 -25.7617 9.03024 11.6219
3 -20.5803 8.75659 11.5859
3 -20.5011 3.10932 17.4052
3 -25.5831 3.08252 17.3909
1 -23.0958 6.0985 23.309
4 -23.0692 5.96749 28.5366
1 -23.0231 0.35077 23.2869
4 -23.2026 11.845 28.5629
2 -25.9193 3.10299 20.2793
2 -25.9682 8.84896 20.3222
2 -26.1188 3.16261 26.1103
2 -26.1394 8.91607 26.1732
3 -26.2598 5.97249 20.3121
3 -23.0352 3.6427 20.5508
3 -25.8925 6.04224 26.0185
3 -23.1861 3.17121 25.9624
3 -20.2958 6.04209 26.0556
3 -23.2312 8.93466 26.2217
3 -25.8355 8.9048 23.2456
3 -20.4587 8.88943 23.2648
3 -20.4777 3.15223 29.1685
3 -26.0218 3.11023 29.1023
4 -17.5087 11.6405 -28.5921
4 -17.4405 17.569 -28.5947
3 -14.6039 11.7671 -26.2186
3 -17.5195 14.6288 -26.265
3 -14.7839 8.81705 -29.2044
3 -20.2973 8.87807 -29.185
1 -17.5311 11.8634 -23.4492
1 -16.9597 11.5817 -17.4381
1 -17.4553 6.04996 -23.4042
1 -17.4167 17.1182 -17.4346
2 -20.343 8.91342 -26.2149
2 -20.4011 14.6603 -26.2787
2 -20.1943 8.93906 -20.3154
2 -20.3031 14.6194 -20.3577
3 -20.3768 11.7891 -26.0899
3 -17.4693 8.92171 -25.9563
3 -13.9771 11.7792 -14.8852
3 -17.5118 14.1303 -14.8486
3 -20.9816 11.7788 -20.4795
3 -17.3401 9.53115 -20.6099
3 -13.9215 11.7244 -20.1469
3 -17.4427 13.9809 -20.1921
3 -20.2315 14.6918 -23.3166
3 -14.7729 14.4669 -23.3049
3 -14.7755 8.57297 -17.4434
3 -20.0004 9.3184 -17.4127
1 -17.945 12.0982 -11.5835
1 -17.038 11.6662 -5.80433
1 -17.591 6.56791 -11.5904
1 -17.4733 17.2436 -5.81389
2 -20.2226 9.03184 -14.5064
2 -20.3607 14.7713 -14.514
2 -20.31 9.0333 -8.6548
2 -20.4225 14.7556 -8.67321
3 -20.8412 11.8956 -14.1862
3 -17.3518 9.53407 -14.1651
3 -14.09 11.8559 -3.26504
3 -17.6075 14.2658 -3.24987
3 -20.8196 11.8876 -9.06736
3 -17.411 9.48785 -9.03242
3 -14.081 11.8226 -8.35852
3 -17.5529 14.2791 -8.35484
3 -20.1695 15.1372 -11.5917
3 -14.9616 14.3632 -11.6056
3 -14.8821 8.63579 -5.80639
3 -20.08 9.54579 -5.78691
1 -18.0253 12.1473 -3.51355e-13
1 -17.038 11.6662 5.80433
1 -17.6264 6.60213 -1.18787e-13
1 -17.4733 17.2436 5.81389
2 -20.3443 9.05617 -2.91251
2 -20.4961 14.7721 -2.91243
2 -20.3443 9.05617 2.91251
2 -20.4961 14.7721 2.91243
3 -20.9284 11.908 -2.48797
3 -17.4434 9.53926 -2.54727
3 -14.081 11.8226 8.35852
3 -17.5529 14.2791 8.35484
3 -20.9284 11.908 2.48797
3 -17.4434 9.53926 2.54727
3 -14.09 11.8559 3.26504
3 -17.6075 14.2658 3.24987
3 -20.2636 15.1871 -8.31813e-14
3 -15.0482 14.3982 -5.51898e-14
3 -14.8821 8.63579 5.80639
3 -20.08 9.54579 5.78691
1 -17.945 12.0982 11.5835
1 -16.9597 11.5817 17.4381
1 -17.591 6.56791 11.5904
1 -17.4167 17.1182 17.4346
2 -20.31 9.0333 8.6548
2 -20.4225 14.7556 8.67321
2 -20.2226 9.03184 14.5064
2 -20.3607 14.7713 14.514
3 -20.8196 11.8876 9.06736
3 -17.411 9.48785 9.03242
3 -13.9215 11.7244 20.1469
3 -17.4427 13.9809 20.1921
3 -20.8412 11.8956 14.1862
3 -17.3518 9.53407 14.1651
3 -13.9771 11.7792 14.8852
3 -17.5118 14.1303 14.8486
3 -20.1695 15.1372 11.5917
3 -14.9616 14.3632 11.6056
3 -14.7755 8.57297 17.4434
3 -20.0004 9.3184 17.4127
1 -17.5311 11.8634 23.4492
4 -17.5087 11.6405 28.5921
1 -17.4553 6.04996 23.4042
4 -17.4405 17.569 28.5947
2 -20.1943 8.93906 20.3154
2 -20.3031 14.6194 20.3577
2 -20.343 8.91342 26.2149
2 -20.4011 14.6603 26.2787
3 -20.9816 11.7788 20.4795
3 -17.3401 9.53115 20.6099
3 -20.3768 11.7891 26.0899
3 -17.4693 8.92171 25.9563
3 -14.6039 11.7671 26.2186
3 -17.5195 14.6288 26.265
3 -20.2315 14.6918 23.3166
3 -14.7729 14.4669 23.3049
3 -14.7839 8.81705 29.2044
3 -20.2973 8.87807 29.185
4 -11.8194 17.4293 -28.5696
4 -11.6648 23.162 -28.5968
3 -8.87364 17.5087 -26.2323
3 -11.7601 20.3531 -26.1581
3 -9.00136 14.569 -29.2036
3 -14.5613 14.7809 -29.224
1 -11.7782 17.5672 -23.4579
1 -11.3679 17.2929 -17.4534
1 -11.8118 11.8162 -23.4054
1 -11.6315 23.1985 -17.3438
2 -14.634 14.6395 -26.2608
2 -14.6365 20.3872 -26.2507
2 -14.553 14.605 -20.3658
2 -14.6504 20.2863 -20.3322
3 -14.6619 17.5145 -26.0155
3 -11.7603 14.663 -25.9853
3 -8.37868 17.3969 -14.8809
3 -11.9048 19.8259 -14.7913
3 -15.3188 17.4455 -20.5949
3 -11.6929 15.2002 -20.6399
3 -8.25535 17.3978 -20.1424
3 -11.7731 19.6515 -20.2969
3 -14.5601 20.4969 -23.298
3 -8.96911 20.2079 -23.2882
3 -9.17679 14.2544 -17.4545
3 -14.3707 14.931 -17.4447
1 -12.3334 17.728 -11.5879
1 -11.403 17.3262 -5.81069
1 -11.9408 12.2109 -11.622
1 -11.7103 23.149 -5.86235
2 -14.6296 14.64 -14.5264
2 -14.7892 20.3502 -14.5032
2 -14.6598 14.6955 -8.69413
2 -14.7818 20.4859 -8.65255
3 -15.3088 17.4931 -14.1603
3 -11.7555 15.1877 -14.1844
3 -8.47856 17.4726 -3.24913
3 -11.9634 19.9687 -3.28607
3 -15.211 17.5778 -9.01815
3 -11.7765 15.1533 -9.04749
3 -8.46794 17.4267 -8.36764
3 -11.9191 19.9934 -8.33504
3 -14.4914 20.7403 -11.5787
3 -9.39007 20.0144 -11.6012
3 -9.2754 14.2679 -5.80534
3 -14.4067 15.0885 -5.79667
1 -12.3847 17.8218 -2.86874e-14
1 -11.403 17.3262 5.81069
1 -12.0061 12.2694 -5.88667e-14
1 -11.7103 23.149 5.86235
2 -14.7083 14.7332 -2.90118
2 -14.83 20.5214 -2.91185
2 -14.7083 14.7332 2.90118
2 -14.83 20.5214 2.91185
3 -15.2932 17.615 -2.53968
3 -11.8146 15.2157 -2.53427
3 -8.46794 17.4267 8.36764
3 -11.9191 19.9934 8.33504
3 -15.2932 17.615 2.53968
3 -11.8146 15.2157 2.53427
3 -8.47856 17.4726 3.24913
3 -11.9634 19.9687 3.28607
3 -14.4687 20.8987 5.69079e-14
3 -9.44805 20.0951 -6.80208e-15
3 -9.2754 14.2679 5.80534
3 -14.4067 15.0885 5.79667
1 -12.3334 17.728 11.5879
1 -11.3679 17.2929 17.4534
1 -11.9408 12.2109 11.622
1 -11.6315 23.1985 17.3438
2 -14.6598 14.6955 8.69413
2 -14.7818 20.4859 8.65255
2 -14.6296 14.64 14.5264
2 -14.7892 20.3502 14.5032
3 -15.211 17.5778 9.01815
3 -11.7765 15.1533 9.04749
3 -8.25535 17.3978 20.1424
3 -11.7731 19.6515 20.2969
3 -15.3088 17.4931 14.1603
3 -11.7555 15.1877 14.1844
3 -8.37868 17.3969 14.8809
3 -11.9048 19.8259 14.7913
3 -14.4914 20.7403 11.5787
3 -9.39007 20.0144 11.6012
3 -9.17679 14.2544 17.4545
3 -14.3707 14.931 17.4447
1 -11.7782 17.5672 23.4579
4 -11.8194 17.4293 28.5696
1 -11.8118 11.8162 23.4054
4 -11.6648 23.162 28.5968
2 -14.553 14.605 20.3658
2 -14.6504 20.2863 20.3322
2 -14.634 14.6395 26.2608
2 -14.6365 20.3872 26.2507
3 -15.3188 17.4455 20.5949
3 -11.6929 15.2002 20.6399
3 -14.6619 17.5145 26.0155
3 -11.7603 14.663 25.9853
3 -8.87364 17.5087 26.2323
3 -11.7601 20.3531 26.1581
3 -14.5601 20.4969 23.298
3 -8.96911 20.2079 23.2882
3 -9.00136 14.569 29.2036
3 -14.5613 14.7809 29.224
4 -6.03958 23.1738 -28.5179
4 -5.97436 28.5812 -28.4347
3 -3.1369 23.2061 -26.1808
3 -5.99289 25.9925 -25.9274
3 -3.12984 20.2948 -29.1541
3 -8.82141 20.5772 -29.2119
1 -6.04734 23.1726 -23.3353
1 -5.84757 23.0337 -17.3312
1 -6.10079 17.5155 -23.3901
4 -5.97008 28.2471 -17.3499
2 -8.88155 20.3881 -26.2453
2 -8.87023 26.2096 -26.1507
2 -8.88776 20.2709 -20.3344
2 -8.83295 26.0464 -20.3089
3 -8.87804 23.2774 -26.0146
3 -6.01248 20.3628 -26.0132
3 -2.80811 23.0373 -14.7407
3 -6.01926 25.6623 -14.5328
3 -9.41655 23.1618 -20.5484
3 -6.02024 20.866 -20.4924
3 -2.60859 23.0263 -20.1342
3 -5.95642 25.533 -20.3012
3 -8.90284 26.1452 -23.2356
3 -3.10124 25.7963 -23.2008
3 -3.53493 19.9321 -17.4011
3 -8.85049 20.5948 -17.4252
1 -6.32834 23.326 -11.6098
1 -5.8634 23.1237 -5.79474
1 -6.33126 17.8199 -11.6064
4 -6.07069 28.3094 -5.84023
2 -9.00342 20.2405 -14.5164
2 -8.88446 26.0746 -14.5261
2 -9.01131 20.2953 -8.68776
2 -8.92816 26.1037 -8.70667
3 -9.27101 23.1479 -14.2585
3 -6.11727 20.7074 -14.1871
3 -2.87593 23.0647 -3.21746
3 -6.12639 25.7162 -2.93998
3 -9.34411 23.1892 -8.99018
3 -6.14176 20.7131 -9.07246
3 -2.86001 23.0505 -8.39307
3 -6.0625 25.6697 -8.67178
3 -8.94167 26.1388 -11.6218
3 -3.26579 25.6516 -11.5881
3 -3.78519 19.9178 -5.79185
3 -8.77557 20.7146 -5.80083
1 -6.51513 23.4305 4.53886e-14
1 -5.8634 23.1237 5.79474
1 -6.38637 17.9079 9.53881e-15
4 -6.07069 28.3094 5.84023
2 -9.0623 20.3517 -2.91175
2 -9.00008 26.1843 -2.92558
2 -9.0623 20.3517 2.91175
2 -9.00008 26.1843 2.92558
3 -9.44501 23.2608 -2.62618
3 -6.18413 20.7999 -2.52002
3 -2.86001 23.0505 8.39307
3 -6.0625 25.6697 8.67178
3 -9.44501 23.2608 2.62618
3 -6.18413 20.7999 2.52002
3 -2.87593 23.0647 3.21746
3 -6.12639 25.7162 2.93998
3 -9.09049 26.3037 3.73206e-15
3 -3.35898 25.6474 -2.40463e-15
3 -3.78519 19.9178 5.79185
3 -8.77557 20.7146 5.80083
1 -6.32834 23.326 11.6098
1 -5.84757 23.0337 17.3312
1 -6.33126 17.8199 11.6064
4 -5.97008 28.2471 17.3499
2 -9.01131 20.2953 8.68776
2 -8.92816 26.1037 8.70667
2 -9.00342 20.2405 14.5164
2 -8.88446 26.0746 14.5261
3 -9.34411 23.1892 8.99018
3 -6.14176 20.7131 9.07246
3 -2.60859 23.0263 20.1342
3 -5.95642 25.533 20.3012
3 -9.27101 23.1479 14.2585
3 -6.11727 20.7074 14.1871
3 -2.80811 23.0373 14.7407
3 -6.01926 25.6623 14.5328
3 -8.94167 26.1388 11.6218
3 -3.26579 25.6516 11.5881
3 -3.53493 19.9321 17.4011
3 -8.85049 20.5948 17.4252
1 -6.04734 23.1726 23.3353
4 -6.03958 23.1738 28.5179
1 -6.10079 17.5155 23.3901
4 -5.97436 28.5812 28.4347
2 -8.88776 20.2709 20.3344
2 -8.83295 26.0464 20.3089
2 -8.88155 20.3881 26.2453
2 -8.87023 26.2096 26.1507
3 -9.41655 23.1618 20.5484
3 -6.02024 20.866 20.4924
3 -8.87804 23.2774 26.0146
3 -6.01248 20.3628 26.0132
3 -3.1369 23.2061 26.1808
3 -5.99289 25.9925 25.9274
3 -8.90284 26.1452 23.2356
3 -3.10124 25.7963 23.2008
3 -3.12984 20.2948 29.1541
3 -8.82141 20.5772 29.2119
4 -0.215773 28.4307 -28.4989
3 2.61677 29.0332 -26.108
3 2.67161 26.0151 -29.0854
3 -3.16152 26.1716 -29.1231
4 -0.305003 28.3865 -23.1691
4 0.0457921 28.318 -17.3499
1 -0.304104 23.0648 -23.2488
2 -3.11098 26.1137 -26.1241
2 -3.06711 25.9446 -20.2768
3 -3.039 29.0814 -26.0397
3 -0.236643 25.8558 -25.9759
3 2.94469 28.8418 -14.773
3 -3.17032 28.9383 -20.4257
3 -0.184407 26.1309 -20.2985
3 2.99514 28.7974 -20.1271
3 2.69438 25.5029 -17.3712
3 -3.04012 25.9733 -17.3887
4 -0.543136 28.3739 -11.5464
4 -0.0232848 28.3133 -5.7872
1 -0.420368 23.2109 -11.5712
2 -3.13897 25.9705 -14.4879
2 -3.1792 25.9844 -8.68454
3 -3.31918 28.9283 -14.3251
3 -0.259355 26.0686 -14.4276
3 2.78984 28.8518 -3.11446
3 -3.3302 28.9418 -8.91407
3 -0.292968 26.0247 -8.71565
3 2.78274 28.8684 -8.45194
3 2.61434 25.5026 -5.7919
3 -3.12795 26.0823 -5.79518
4 -0.589731 28.3788 3.30711e-16
4 -0.0232848 28.3133 5.7872
1 -0.486087 23.2608 2.31749e-15
2 -3.2296 25.9945 -2.90088
2 -3.2296 25.9945 2.90088
3 -3.36213 28.9521 -2.68404
3 -0.337191 26.0533 -2.85632
3 2.78274 28.8684 8.45194
3 -3.36213 28.9521 2.68404
3 -0.337191 26.0533 2.85632
3 2.78984 28.8518 3.11446
3 2.61434 25.5026 5.7919
3 -3.12795 26.0823 5.79518
4 -0.543136 28.3739 11.5464
4 0.0457921 28.318 17.3499
1 -0.420368 23.2109 11.5712
2 -3.1792 25.9844 8.68454
2 -3.13897 25.9705 14.4879
3 -3.3302 28.9418 8.91407
3 -0.292968 26.0247 8.71565
3 2.99514 28.7974 20.1271
3 -3.31918 28.9283 14.3251
3 -0.259355 26.0686 14.4276
3 2.94469 28.8418 14.773
3 2.69438 25.5029 17.3712
3 -3.04012 25.9733 17.3887
4 -0.305003 28.3865 23.1691
4 -0.215773 28.4307 28.4989
1 -0.304104 23.0648 23.2488
2 -3.06711 25.9446 20.2768
2 -3.11098 26.1137 26.1241
3 -3.17032 28.9383 20.4257
3 -0.184407 26.1309 20.2985
3 -3.039 29.0814 26.0397
3 -0.236643 25.8558 25.9759
3 2.61677 29.0332 26.108
3 2.67161 26.0151 29.0854
3 -3.16152 26.1716 29.1231
4 5.5946 28.1341 -22.869
4 5.60016 28.1212 -11.6662
4 5.50147 28.1162 -2.90615e-14
4 5.60016 28.1212 11.6662
4 5.5946 28.1341 22.869
4 -28.4284 -11.1931 -28.2254
4 -28.3526 -5.47494 -28.4221
3 -25.6665 -11.2134 -25.8911
3 -28.9084 -8.26478 -25.9623
3 -26.1641 -14.0204 -29.0802
4 -27.972 -11.3195 -22.9135
4 -27.9393 -11.2375 -17.4452
4 -28.1056 -16.782 -23.0738
4 -28.1869 -5.66664 -17.3425
3 -28.7748 -14.1109 -25.8005
3 -25.4484 -11.247 -14.483
3 -28.7587 -8.57144 -14.837
3 -28.604 -13.974 -20.3867
3 -25.2091 -11.2825 -20.2674
3 -28.6578 -8.66908 -20.1963
3 -25.7781 -8.34266 -23.1672
3 -25.7005 -14.1769 -17.3444
4 -28.0113 -11.3974 -11.5428
4 -27.9728 -11.2428 -5.78808
4 -28.0245 -16.7987 -11.5536
4 -28.2057 -5.80829 -5.8048
3 -28.6339 -14.1592 -14.302
3 -25.3835 -11.2291 -2.92219
3 -28.7477 -8.63414 -3.14816
3 -28.6224 -14.0728 -8.88565
3 -25.3693 -11.2525 -8.66432
3 -28.7397 -8.66843 -8.46997
3 -25.9315 -8.34074 -11.5954
3 -25.7541 -14.1976 -5.77901
4 -28.0063 -11.3451 7.55137e-13
4 -27.9728 -11.2428 5.78808
4 -28.0145 -16.7426 3.04494e-13
4 -28.2057 -5.80829 5.8048
3 -28.6173 -14.0439 -2.68653
3 -25.3693 -11.2525 8.66432
3 -28.7397 -8.66843 8.46997
3 -28.6173 -14.0439 2.68653
3 -25.3835 -11.2291 2.92219
3 -28.7477 -8.63414 3.14816
3 -25.9237 -8.29777 6.29782e-14
3 -25.7541 -14.1976 5.77901
4 -28.0113 -11.3974 11.5428
4 -27.9393 -11.2375 17.4452
4 -28.0245 -16.7987 11.5536
4 -28.1869 -5.66664 17.3425
3 -28.6224 -14.0728 8.88565
3 -25.2091 -11.2825 20.2674
3 -28.6578 -8.66908 20.1963
3 -28.6339 -14.1592 14.302
3 -25.4484 -11.247 14.483
3 -28.7587 -8.57144 14.837
3 -25.9315 -8.34074 11.5954
3 -25.7005 -14.1769 17.3444
4 -27.972 -11.3195 22.9135
4 -28.4284 -11.1931 28.2254
4 -28.1056 -16.782 23.0738