1307
 Atoms. Timestep: 10002206
4 -17.2548 17.0012 -12.2536
4 -17.2799 11.991 -0.972153
4 -17.3484 16.9713 11.4219
4 -12.0315 10.5988 -17.4584
3 -14.8372 11.5474 -15.3137
3 -18.0863 14.1346 -14.418
3 -14.9142 7.90697 -17.6773
4 -16.983 11.3829 -11.7339
4 -17.1129 11.7826 -6.25285
4 -17.1214 5.86977 -11.0601
4 -17.3205 16.741 -6.43567
3 -17.6057 8.35294 -14.0971
3 -14.2966 11.7316 -3.15299
3 -17.8369 14.623 -3.44646
3 -17.4723 8.95074 -8.98199
3 -14.5115 11.6213 -8.93547
3 -17.7372 14.0046 -9.1044
3 -14.8736 14.0805 -11.9072
3 -14.4068 8.62288 -5.89503
4 -19.2338 9.37283 -0.0593987
4 -17.0578 11.3018 5.34649
4 -17.6179 5.4719 0.54195
4 -17.4745 16.7398 5.52355
3 -17.9268 9.43649 -3.36426
3 -14.7632 11.6666 8.60099
3 -18.0452 14.4466 8.78571
3 -17.733 8.43479 3.1976
3 -14.5672 11.4862 2.62026
3 -17.8089 13.8692 2.61437
3 -14.6926 14.5706 -0.0775804
3 -14.3177 8.63534 5.70143
4 -17.088 11.6907 11.6432
4 -17.348 12.043 16.973
4 -17.6594 4.65357 8.76584
3 -17.7404 8.31213 8.61306
3 -17.751 9.21198 14.4997
3 -14.5566 11.7233 14.3148
3 -17.856 14.4058 14.1738
3 -14.6828 14.4024 11.5216
3 -14.2396 8.89324 17.8539
4 -11.5108 16.826 -17.0619
3 -9.09394 17.6923 -14.1975
3 -8.40231 14.8322 -17.6528
3 -11.9871 14.0488 -19.5693
4 -11.9198 16.7023 -11.7254
4 -11.9114 17.278 -6.14802
1 -11.8404 11.6815 -11.7943
2 -15.1735 14.3503 -14.8225
2 -14.8742 14.4172 -8.91379
3 -14.4706 17.3213 -14.4502
3 -12.0498 14.1754 -14.7559
3 -8.94538 17.6718 -3.00574
3 -15.1109 17.5351 -9.26465
3 -11.8842 14.574 -8.84259
3 -8.84517 17.7595 -8.90673
3 -9.06088 14.9055 -5.86432
3 -14.5173 14.4069 -6.09368
4 -11.3639 17.3749 -0.0298917
4 -11.3945 16.8045 5.92708
1 -11.927 11.6024 -0.0970308
2 -15.0284 14.9587 -2.96095
2 -15.046 14.5737 2.75066
3 -14.8645 17.796 -3.81623
3 -12.1077 14.8823 -2.79032
3 -8.85072 17.8098 9.15714
3 -14.8262 17.6843 3.36061
3 -11.8265 14.545 2.75794
3 -8.75278 17.6776 2.77114
3 -8.42891 14.6133 5.99225
3 -14.7027 14.1779 5.58193
4 -11.9597 16.992 11.1476
4 -11.9499 17.3167 16.4202
1 -11.9713 11.8396 11.7015
2 -14.9229 14.5262 8.56797
2 -14.8874 14.7513 14.4086
3 -14.4013 17.2933 8.38244
3 -11.7799 14.2361 8.52097
3 -14.6262 17.7139 13.815
3 -11.8617 14.4952 14.3797
3 -8.27355 17.6371 15.0392
3 -9.14713 14.8772 17.7967
3 -14.3816 14.4121 17.512
4 -5.97861 17.0361 -11.4955
4 -6.24335 17.0798 -0.155328
4 -5.96513 16.9392 12.0194
4 -17.1204 -0.213493 -16.5064
4 -11.6387 6.08134 -16.8458
3 -14.2199 0.175171 -14.4137
3 -17.7199 2.84301 -14.5925
3 -14.7925 -3.11767 -17.2109
4 -16.8878 0.171361 -11.6223
4 -17.5102 -0.0332108 -5.4197
4 -17.3029 -6.4542 -11.6216
4 -17.0811 6.15562 -5.7766
3 -17.6469 -2.7971 -14.0392
3 -14.8741 0.0680909 -2.50733
3 -18.103 3.12458 -2.25119
3 -17.9922 -2.53146 -8.67741
3 -14.796 0.254375 -8.3208
3 -17.873 2.8666 -8.69841
3 -14.4542 3.02657 -11.4112
3 -15.1521 -3.01322 -5.70113
4 -17.2979 -0.0786957 0.561669
4 -17.1503 0.102301 5.29408
4 -17.0696 -6.18324 -0.0620517
4 -17.2309 5.83128 5.60229
3 -17.9739 -3.85911 -2.97365
3 -14.4488 -0.0170906 9.01973
3 -19.4576 2.85223 6.29024
3 -17.6327 -2.75731 3.05062
3 -14.4179 -0.113197 3.04068
3 -17.6517 2.86772 2.8194
3 -14.4702 2.50554 0.375443
3 -14.8075 -2.66296 5.87618
4 -17.5214 -0.564717 11.8666
4 -18.3265 0.791539 8.85139
4 -16.8494 -5.86434 12.0693
4 -17.6753 6.1736 11.9931
3 -17.7259 -2.98564 8.92858
3 -17.551 -3.04055 14.591
3 -14.7737 0.263975 14.1721
3 -20.0468 3.19181 11.1075
3 -12.4735 3.24511 11.9303
3 -14.1128 -2.53108 17.9404
4 -17.533 5.79625 -16.445
4 -9.07198 11.7685 -18.8199
3 -8.84566 6.03397 -13.9829
3 -11.5394 8.95471 -14.2994
3 -8.88458 3.28941 -17.3088
3 -14.7294 3.27176 -17.2856
1 -11.7523 5.8399 -11.3638
1 -11.9147 5.90417 -5.75652
1 -11.6507 0.0456204 -11.7049
1 -11.7814 12.0296 -6.16055
2 -14.6039 2.97467 -14.3397
2 -14.5723 8.79508 -14.7529
2 -14.8261 3.14429 -8.51374
2 -14.6154 8.84842 -8.83934
3 -14.3591 5.87736 -14.2524
3 -11.5964 3.00032 -14.2051
3 -8.99624 6.16346 -2.97805
3 -12.0606 8.6299 -2.44117
3 -14.3491 5.95482 -8.62326
3 -11.8068 2.71668 -8.22745
3 -8.8251 6.0155 -8.70691
3 -11.7287 9.11526 -9.04852
3 -14.6439 8.78946 -11.7628
3 -8.5843 9.54104 -11.5589
3 -8.42831 3.52378 -5.45849
3 -14.9949 3.07556 -5.52095
1 -12.19 5.74115 0.208169
1 -11.2496 6.00298 5.63228
1 -11.784 0.0786577 -0.00152401
1 -11.3775 11.528 5.83199
2 -15.1218 2.88964 -2.46951
2 -14.88 8.76648 -2.93637
2 -14.5924 2.64146 3.4266
2 -14.8329 8.52749 2.806
3 -15.2646 5.81851 -2.33752
3 -12.0188 3.1165 -3.11361
3 -9.24781 5.94435 8.81957
3 -11.6545 9.33923 8.79242
3 -14.859 5.61799 2.8329
3 -11.483 2.77818 3.71358
3 -9.07394 6.10918 2.49022
3 -11.8436 8.58029 2.7719
3 -15.632 8.69444 -0.0149483
3 -8.65859 9.36773 -0.0726767
3 -8.17543 3.75607 5.75764
3 -15.1564 2.96791 6.52241
1 -11.5613 6.63051 11.6849
4 -11.5389 6.28083 17.4701
1 -11.3602 -0.247054 11.498
4 -11.5237 11.7641 17.4051
2 -13.9443 2.76359 9.22342
2 -14.8281 8.86834 8.60421
2 -13.9215 2.97593 14.3964
2 -14.8288 8.75235 14.7387
3 -14.1035 5.60545 8.82979
3 -11.4568 2.40081 7.814
3 -15.2488 5.68352 14.573
3 -11.6725 2.93673 16.0569
3 -8.89537 5.94268 14.6711
3 -11.8292 8.48694 14.6669
3 -14.7199 8.69639 11.6185
3 -8.67011 8.94817 11.8539
3 -8.43785 3.17832 17.8178
3 -16.2262 2.80634 11.7148
4 -5.66511 12.1021 -16.7746
4 -5.93197 17.5695 -16.522
3 -2.33722 11.9165 -15.1962
3 -6.02149 14.4917 -14.1665
3 -3.17592 8.53918 -17.8099
3 -8.92722 8.40405 -17.6201
1 -5.62269 11.9747 -11.2093
1 -5.47544 11.7308 -5.84612
1 -6.10001 5.99089 -11.2327
4 -6.0896 16.8825 -5.56838
2 -8.5264 8.84346 -14.6955
2 -8.93156 14.7207 -14.7556
2 -8.72819 8.89954 -8.74545
2 -9.03163 14.8055 -8.80731
3 -8.90108 11.6501 -15.1199
3 -5.76612 9.48009 -14.4564
3 -2.61761 11.7516 -2.62598
3 -5.99889 14.3911 -2.82099
3 -8.4234 11.8687 -8.22219
3 -5.65645 8.903 -8.79994
3 -3.00613 11.7916 -8.48503
3 -5.9677 14.6351 -8.8085
3 -9.13938 14.3088 -11.4792
3 -2.96374 14.5657 -11.6816
3 -2.60877 9.28319 -5.83493
3 -9.24594 8.64096 -5.89692
1 -5.85231 11.8776 -0.0951507
1 -5.83904 11.7955 5.94126
1 -6.16317 6.32469 -0.175968
4 -5.67728 17.3296 5.84856
2 -9.19497 9.02182 -2.94414
2 -9.14557 14.7637 -2.91443
2 -8.92592 8.99044 2.89091
2 -8.7903 14.6748 2.98157
3 -9.45295 11.9207 -3.23381
3 -6.06315 9.27711 -3.23736
3 -2.89 11.6677 9.3599
3 -5.79595 14.6196 8.76278
3 -8.90724 11.8167 2.96747
3 -5.8734 8.57918 2.77449
3 -3.43642 11.907 2.45733
3 -5.79583 15.0226 2.98533
3 -8.80996 14.4171 -0.0575182
3 -3.23078 14.793 -0.00537683
3 -3.12044 9.17692 5.90704
3 -8.78898 8.98348 5.96579
1 -5.92962 11.7019 11.9717
4 -6.46569 11.814 17.2368
1 -6.15519 5.39555 12.1023
4 -5.97475 17.0356 17.4456
2 -8.57023 8.82335 9.02379
2 -8.83311 14.8081 8.94895
2 -8.9406 8.81665 14.7962
2 -8.92112 14.8325 14.8621
3 -8.44641 11.742 8.77351
3 -5.75482 8.45065 9.39339
3 -8.96123 11.7802 14.655
3 -5.91724 8.85287 14.5347
3 -3.08844 11.6358 14.5298
3 -6.21376 14.5155 14.6819
3 -8.99489 14.8249 11.8988
3 -2.93388 14.9863 11.7385
3 -3.62581 9.28706 17.8722
3 -8.96307 8.96263 17.9463
4 -0.505389 13.1794 -18.1822
3 3.30729 14.4462 -17.9926
3 0.0631537 11.3036 -21.1323
3 -3.70652 14.9199 -17.6316
4 -0.284518 17.4223 -11.549
4 -0.328059 17.0457 -5.68853
1 -0.357351 12.0772 -11.4496
2 -2.72843 14.8511 -14.7799
2 -3.18548 14.8898 -8.69138
3 -3.29197 17.8323 -13.9776
3 0.155141 15.3265 -14.9264
3 3.00957 17.7134 -3.00724
3 -3.02755 17.7452 -8.91656
3 -0.341473 14.7005 -8.83164
3 3.32069 17.763 -9.49869
3 2.71207 14.8516 -5.79018
3 -3.17009 14.5842 -5.79466
4 -0.110635 17.211 0.147892
4 0.0991961 17.2466 6.46904
1 0.488503 11.3892 -0.289737
2 -3.0663 14.8029 -2.94108
2 -2.79563 14.8674 2.83925
3 -3.46606 17.7084 -3.27885
3 0.0338696 14.7735 -2.90913
3 2.74326 17.4809 9.38397
3 -2.37842 17.6999 3.71927
3 0.109237 14.1639 2.71736
3 2.93413 17.4848 2.76617
3 2.83644 14.7425 5.98536
3 -2.46827 14.2606 5.91803
4 0.256272 17.3658 11.9927
4 -0.108156 16.9242 17.5103
1 0.274624 11.7041 11.9177
2 -2.85613 14.7568 8.74142
2 -3.16511 14.5282 14.6959
3 -2.67316 17.6845 8.77479
3 0.0191296 14.1066 8.99497
3 -3.21108 17.5217 15.0893
3 -0.00388188 14.5044 14.7431
3 3.05112 17.4983 14.9526
3 3.16855 14.2847 17.8801
3 -2.78038 14.3904 17.8228
4 6.24015 16.835 -11.659
4 5.84503 16.8034 -0.44943
4 5.48601 17.3075 11.9124
4 -16.9164 -11.3352 -16.9997
4 -17.5499 -5.58435 -16.1554
3 -14.2522 -11.3583 -14.4969
3 -17.5392 -8.75549 -14.374
3 -14.3702 -13.8276 -18.0171
4 -16.9804 -11.0756 -11.5841
4 -16.7462 -11.3437 -5.69909
4 -17.0306 -16.484 -11.6943
4 -17.3905 -5.60411 -6.50778
3 -17.4307 -13.8263 -14.3114
3 -14.2222 -11.8911 -2.82989
3 -17.3265 -9.16668 -2.62324
3 -17.5293 -14.2787 -8.46892
3 -14.2794 -11.3511 -8.47696
3 -17.5157 -9.04179 -8.74547
3 -14.2211 -8.77902 -11.8003
3 -14.3618 -14.1994 -5.73503
4 -16.7818 -11.3837 0.0100903
4 -17.2155 -11.6289 5.43487
4 -17.4873 -16.7572 0.149411
4 -16.807 -5.78723 6.34108
3 -17.7019 -14.5794 -2.92011
3 -15.6706 -11.429 8.90204
3 -17.6962 -8.14579 9.36422
3 -17.8741 -14.5871 2.86217
3 -14.167 -11.7111 2.88845
3 -17.2464 -8.92002 2.65676
3 -13.5367 -8.95294 -0.0446058
3 -14.4836 -14.4031 6.07653
4 -17.2237 -11.0219 12.7465
4 -16.671 -10.6319 17.7058
4 -11.7219 -19.2337 12.1968
4 -16.6454 -5.09391 17.6122
3 -13.8545 -17.3848 9.1751
3 -17.7454 -13.54 15.6919
3 -14.4327 -11.3944 15.0525
3 -17.4577 -8.03021 14.9704
3 -14.3867 -8.6599 11.9493
3 -14.1562 -13.7344 18.1155
4 -11.9627 -5.63187 -16.824
4 -11.4465 0.460373 -17.0257
3 -8.8519 -5.61844 -14.4489
3 -11.8455 -2.71555 -14.5971
3 -8.16948 -8.46719 -17.8033
3 -15.0053 -8.05733 -17.7782
1 -11.9021 -5.34954 -11.1948
1 -11.7806 -5.75593 -6.00076
1 -11.6635 -11.5604 -11.6243
1 -12.2361 0.079071 -5.49999
2 -14.4715 -8.53178 -14.7356
2 -14.7762 -2.6984 -14.2867
2 -14.5193 -8.65397 -8.85491
2 -14.9953 -2.60724 -8.62701
3 -14.4778 -5.72015 -13.8032
3 -11.6877 -8.76166 -14.9682
3 -8.80769 -5.79551 -2.70295
3 -11.9993 -2.59875 -3.12752
3 -14.6111 -5.73438 -9.04382
3 -11.5847 -8.56738 -9.06226
3 -9.11578 -5.71277 -8.63226
3 -11.9816 -2.66384 -8.59246
3 -14.3472 -2.43439 -11.5066
3 -9.02308 -2.75754 -11.5584
3 -8.18938 -8.9145 -5.79626
3 -15.0179 -8.35631 -5.83383
1 -11.7696 -5.65916 0.305663
1 -11.5974 -6.01731 6.07277
1 -11.5848 -12.3143 0.0334701
1 -11.0787 -0.712263 5.92601
2 -14.3738 -8.93582 -3.03428
2 -14.8319 -3.0384 -2.82853
2 -14.402 -8.7558 3.01608
2 -14.6189 -3.04383 2.94828
3 -14.1502 -6.05933 -2.41737
3 -11.5519 -8.89381 -3.8341
3 -9.03123 -5.98089 8.73632
3 -11.587 -2.88644 8.92235
3 -14.7559 -5.96572 3.1327
3 -11.6368 -8.82319 3.70482
3 -8.68487 -5.96692 2.92799
3 -11.6609 -3.48779 3.60579
3 -14.7323 -2.78648 0.0287865
3 -9.30473 -2.95205 -0.0161438
3 -8.35466 -8.87919 5.96116
3 -14.6512 -8.89055 6.06894
1 -11.5946 -5.61468 11.5703
4 -11.2573 -5.23907 17.4642
1 -11.637 -11.4669 12.1848
4 -11.2862 -0.433092 17.4066
2 -14.5686 -8.7003 8.94279
2 -14.8141 -2.95067 8.77559
2 -14.5296 -8.51864 14.8541
2 -14.5133 -2.55174 14.9212
3 -14.1951 -5.78739 8.87078
3 -11.6632 -8.9032 8.74749
3 -14.1187 -5.66627 14.7486
3 -11.3761 -8.64796 14.7161
3 -8.65147 -5.73606 14.6676
3 -11.5339 -2.6299 14.5679
3 -14.4965 -2.90262 11.89
3 -8.54764 -2.97734 11.7647
3 -8.66698 -7.86469 17.8171
3 -14.1905 -7.89889 17.9312
4 -6.23017 0.421353 -16.9275
4 -6.06081 5.83247 -16.416
3 -2.08497 0.302659 -14.8563
3 -5.80239 3.11506 -13.9405
3 -3.65227 -2.34799 -17.3688
3 -8.94491 -2.80152 -17.6676
1 -5.85653 0.211412 -11.2757
1 -6.06528 0.0693772 -5.03722
1 -5.84028 -5.27439 -11.8394
1 -6.36334 6.44742 -6.04109
2 -8.90797 -2.71298 -14.5991
2 -8.69957 3.01021 -14.3644
2 -9.07279 -2.57456 -8.6953
2 -8.85711 2.90738 -8.23172
3 -8.85716 0.0545303 -14.4212
3 -5.88591 -2.39999 -14.1567
3 -3.13422 0.25786 -2.68513
3 -5.85939 3.14996 -2.09969
3 -8.47579 0.0698184 -7.90972
3 -5.97576 -2.9424 -9.1225
3 -3.57651 0.149968 -8.58115
3 -6.01737 3.4376 -8.66813
3 -9.02958 2.8336 -11.2976
3 -2.66933 2.91138 -11.5172
3 -3.57646 -2.90531 -5.6825
3 -8.88869 -3.05083 -5.84889
1 -5.97002 0.0365247 0.0705838
1 -6.1656 0.195719 6.29667
1 -6.20737 -5.71946 -0.118814
1 -5.47611 6.31959 5.6563
2 -8.96425 -2.85131 -2.89317
2 -8.89745 3.0889 -2.76464
2 -8.78987 -3.07395 2.87522
2 -8.72839 2.96179 3.02975
3 -9.01988 0.0523138 -2.82208
3 -6.08381 -2.8057 -2.43981
3 -2.79505 0.0487563 8.83657
3 -5.70262 3.02387 8.87711
3 -8.89316 -0.102057 3.13331
3 -5.77085 -2.97588 2.48376
3 -3.17937 0.0745204 2.41415
3 -5.80331 3.29178 2.54773
3 -9.2524 2.85665 0.141078
3 -2.14573 3.40155 0.053003
3 -3.23958 -2.3543 5.79262
3 -8.35911 -2.84858 5.89169
1 -5.99419 0.0802827 11.8098
4 -5.95713 -0.0842552 17.0952
1 -5.91028 -5.66029 11.7855
4 -6.04107 6.24588 17.5408
2 -8.41431 -2.95293 8.85153
2 -8.70734 3.06501 8.66747
2 -8.73902 -2.70419 14.7585
2 -8.88039 3.03831 15.0944
3 -8.5177 0.0609706 9.06869
3 -5.61832 -2.68902 8.69437
3 -8.94091 0.156646 14.3201
3 -5.67728 -2.71526 14.4967
3 -2.83916 0.0367232 13.8327
3 -5.78457 2.66998 14.5603
3 -8.63173 3.01906 11.7606
3 -2.96895 3.86167 11.7525
3 -2.77559 -3.20022 17.4283
3 -8.53741 -2.74258 17.9938
4 -0.231189 6.2877 -17.4967
4 0.186335 9.83967 -17.9218
3 3.10267 5.94929 -13.7596
3 -0.108211 8.1854 -14.586
3 3.01075 3.01401 -17.5614
3 -3.26716 3.79456 -17.5697
1 -0.00994977 5.8074 -11.212
1 -0.341669 6.09972 -5.84259
1 -0.100733 0.269419 -11.298
1 -0.164373 11.7256 -5.90909
2 -2.83782 3.16661 -14.6068
2 -2.97679 8.89925 -14.6404
2 -3.1776 3.10042 -8.68556
2 -2.80871 8.97735 -8.67238
3 -3.52176 6.07723 -13.9367
3 0.00294821 3.79285 -14.6599
3 3.10151 5.70767 -1.93551
3 -0.0922124 8.45578 -2.7961
3 -3.06024 6.00177 -8.16749
3 -0.206358 2.85102 -8.4466
3 3.10008 6.10051 -9.02385
3 -0.0871184 8.71682 -8.95211
3 -2.82554 9.14541 -11.6041
3 2.64669 9.73771 -11.6515
3 3.32887 3.84676 -5.62683
3 -3.24412 2.75595 -5.80309
1 0.288885 6.27732 0.208434
1 0.0614569 6.18019 5.70292
1 -0.150595 0.184266 -0.370932
1 0.151829 12.0338 5.92616
2 -3.03434 3.21151 -2.72103
2 -3.04592 8.95103 -2.88446
2 -2.81629 3.18953 2.8762
2 -2.8403 9.03673 2.91838
3 -3.23197 6.10066 -3.45046
3 -0.00869583 3.0565 -3.51941
3 3.02104 5.57367 9.34466
3 0.0868404 8.97299 8.55613
3 -2.48558 5.97985 3.15331
3 0.341708 2.91692 3.17718
3 3.31381 5.51186 2.45753
3 0.136404 8.74322 2.79568
3 -3.00073 8.88258 0.0647555
3 3.12612 9.05467 0.155004
3 3.60635 3.78603 5.87337
3 -2.46514 3.17846 5.76591
1 0.0078689 5.80465 11.4116
4 0.616232 5.68239 17.2786
1 -0.0147394 -0.307717 11.3313
4 -0.209855 11.6507 17.1715
2 -2.69713 3.039 8.75405
2 -2.88191 8.80842 9.21463
2 -2.72714 2.95306 14.678
2 -2.92029 8.66995 14.987
3 -2.48491 5.98969 8.47426
3 0.262519 2.55461 8.97995
3 -2.99715 5.7805 15.6427
3 0.323536 3.33895 14.3821
3 3.36846 5.69935 14.273
3 0.198326 8.43311 15.2651
3 -2.30507 8.52428 12.0626
3 2.7811 8.9247 11.672
3 3.67973 3.28406 17.5795
3 -2.88732 1.84024 17.4935
4 3.26287 11.0924 -19.0744
4 6.2806 11.5253 -17.4037
3 8.69846 11.5539 -14.7947
3 5.87145 14.4061 -14.4139
3 8.25095 8.43614 -17.6499
3 3.14792 7.67811 -17.3793
1 5.95087 12.1084 -11.2235
1 5.75186 11.959 -5.89828
1 5.8008 5.6905 -11.5053
4 5.95529 17.2929 -5.67025
2 2.63642 8.82314 -14.3499
2 2.92079 14.3422 -14.9597
2 2.85658 8.95322 -8.81745
2 2.60469 15.0346 -9.05434
3 2.26374 11.5971 -15.5844
3 5.53604 8.66191 -14.1841
3 8.31437 11.4309 -2.71452
3 6.09745 14.5537 -3.09438
3 2.75875 12.0972 -8.37014
3 5.66303 9.19935 -8.8891
3 8.48351 11.8176 -8.28426
3 5.73172 14.5671 -8.66587
3 2.97886 14.1665 -12.001
3 8.94101 14.1615 -11.7365
3 8.88117 9.04311 -5.85147
3 2.6444 8.58143 -5.9011
1 5.77127 11.8134 0.0109312
1 6.0423 11.3659 6.01351
1 6.33023 5.69907 -0.0845281
4 6.132 16.8324 5.68007
2 2.85913 8.78735 -2.79073
2 2.81885 14.7012 -2.7744
2 3.2526 8.50348 3.07987
2 2.94759 14.4827 3.04849
3 2.8966 11.631 -3.27409
3 5.71062 8.70143 -3.10448
3 8.92751 11.4298 9.35768
3 5.75953 14.2281 8.56126
3 3.14872 11.5156 3.30576
3 6.15694 8.6629 2.93207
3 9.09984 11.7267 2.3422
3 6.10073 14.6228 2.69923
3 2.96113 14.2051 0.030079
3 9.00595 14.8567 -0.0937871
3 9.01636 8.69532 5.7214
3 3.11888 8.35472 6.02653
1 5.74204 11.8075 11.9086
4 6.04216 11.3882 16.9829
1 5.95008 5.63587 11.4964
4 5.72384 16.5811 17.6515
2 2.96126 8.44346 8.8069
2 2.8083 14.6825 8.84993
2 3.13681 8.54993 14.7803
2 2.98771 14.5345 15.05
3 3.20217 11.5223 8.88329
3 5.86727 8.50934 8.70037
3 2.80149 11.5997 14.6708
3 5.88137 8.85452 14.3237
3 8.80338 11.7321 14.0091
3 5.96526 14.3813 14.7566
3 2.94552 14.545 11.8859
3 8.53765 14.857 11.5184
3 8.84896 8.76655 17.6297
3 3.49997 8.65269 17.9591
4 11.4782 16.9348 -17.3129
3 14.4148 17.616 -14.8145
3 14.4362 14.3187 -17.9617
3 8.94718 14.1397 -17.7779
4 11.6089 17.1577 -11.8109
4 11.6227 17.5276 -6.17051
1 11.7353 11.4188 -12.1492
2 8.75883 14.5248 -14.7494
2 8.69191 14.6256 -8.81306
3 9.16262 17.6585 -14.4036
3 11.6902 14.4156 -14.6684
3 14.2653 17.5863 -2.64141
3 9.00266 17.6743 -9.20122
3 11.6218 14.1879 -9.04912
3 14.2609 17.826 -8.82427
3 13.8061 14.6488 -5.97752
3 8.82709 14.6954 -6.02593
4 12.1295 16.8193 0.322963
4 12.0464 17.2029 5.87991
1 11.4578 11.1887 -0.247491
2 8.9466 14.9039 -3.04221
2 9.1146 14.8848 2.86086
3 9.04493 17.8922 -3.49879
3 11.4576 13.8811 -2.76288
3 14.3968 17.459 8.86913
3 9.52765 17.9866 3.16691
3 12.0344 14.4168 2.93778
3 14.8353 17.2596 2.83668
3 14.7912 14.5095 5.78777
3 8.89387 14.0262 5.7545
4 11.4137 17.0816 11.2338
4 11.408 16.4447 16.935
1 11.8536 11.5292 11.621
2 8.94683 14.2518 8.6687
2 8.80698 14.6302 14.3777
3 9.0602 17.2195 8.31166
3 11.8138 14.1296 8.57599
3 8.46583 17.8027 15.1661
3 11.8449 14.3379 14.2837
3 14.0606 17.5573 14.4269
3 14.7196 14.4301 17.4777
3 8.79618 14.0575 17.7587
4 16.8515 17.1728 -12.0171
4 17.1771 16.9692 -0.185385
4 17.1067 16.9117 11.6596
4 -16.9815 -16.9972 -5.7753
4 -7.69855 -18.0456 6.37872
4 -11.8558 -17.1616 -17.174
4 -11.0643 -11.6179 -17.0262
3 -8.91473 -17.6205 -14.3918
3 -11.7449 -14.2655 -14.2025
4 -11.6589 -17.3266 -11.1594
4 -11.7956 -17.0796 -5.76734
1 -11.0587 -11.7485 -6.17677
2 -14.6158 -14.2901 -14.9601
2 -14.3678 -14.5649 -8.51787
3 -14.6707 -17.2467 -14.4237
3 -9.05522 -17.8441 -2.35475
3 -11.7309 -14.7383 -2.7278
3 -14.4519 -17.466 -8.52249
3 -8.96544 -17.8075 -8.24564
3 -11.382 -14.5207 -8.48557
3 -14.2901 -14.2555 -11.4955
3 -8.57061 -14.7023 -11.5893
4 -12.0753 -17.0315 0.204279
4 -11.9336 -17.1467 6.1108
1 -11.9056 -11.7651 5.8402
2 -14.6776 -14.6629 -2.77383
2 -14.7304 -14.7634 3.19232
3 -14.8381 -17.7248 -2.85908
3 -9.64673 -17.8275 9.46159
3 -11.7015 -13.5259 9.26508
3 -14.6526 -17.7814 2.88476
3 -9.35082 -17.9021 2.94135
3 -11.74 -14.4797 3.17535
3 -14.7455 -14.3829 0.264935
3 -8.93178 -14.7493 0.288646
4 -11.9468 -16.0426 12.1583
4 -11.2484 -15.9451 17.8091
4 -11.3142 -11.0348 17.22
2 -14.587 -14.3645 9.01891
2 -14.7183 -14.537 15.2834
3 -5.64098 -19.8849 9.1485
3 -13.4044 -17.3645 15.1743
3 -9.228 -17.2026 14.2157
3 -11.6101 -13.9392 14.9716
3 -14.9495 -14.0098 12.0296
3 -8.89486 -14.0172 11.878
4 -5.8406 -11.5473 -16.5577
4 -6.02145 -5.40757 -17.0617
3 -2.59208 -11.5503 -14.7118
3 -5.66235 -8.40228 -14.0358
3 -2.9102 -14.2035 -17.7286
3 -8.76659 -14.6751 -17.372
1 -5.71471 -11.5549 -11.2527
1 -5.76663 -11.989 -5.27699
4 -5.56938 -17.2065 -11.5285
1 -6.13036 -5.85416 -6.20636
2 -8.7269 -14.6299 -14.3051
2 -8.73583 -8.56804 -14.7474
2 -8.68994 -14.6915 -8.60741
2 -8.47389 -8.62347 -8.80813
3 -8.61736 -11.6216 -14.2822
3 -5.88527 -14.7204 -14.1872
3 -3.02133 -12.0801 -2.82074
3 -5.95261 -9.0885 -2.0268
3 -8.42375 -11.601 -8.92562
3 -5.87469 -14.8231 -8.57758
3 -3.02985 -11.6834 -8.53311
3 -5.80048 -8.07401 -9.32725
3 -8.82195 -8.79947 -11.7753
3 -2.55321 -8.94262 -11.7223
3 -2.91623 -14.8477 -5.75678
3 -8.85907 -14.6026 -5.69297
1 -6.06152 -11.9348 0.186003
1 -5.48173 -12.0427 6.00529
4 -5.99519 -17.2669 0.228644
1 -5.44998 -5.43109 5.65638
2 -8.89138 -15.0151 -2.76516
2 -8.86083 -8.94868 -2.64588
2 -9.05125 -14.6156 3.17931
2 -8.76724 -8.9664 3.01229
3 -8.70715 -11.9064 -2.61385
3 -5.95439 -14.6171 -2.84274
3 -3.25557 -11.7656 8.80694
3 -5.79401 -8.40746 9.20473
3 -8.13318 -11.8286 3.09662
3 -6.18066 -15.5609 3.71058
3 -3.66589 -11.8806 2.97056
3 -5.96816 -8.50587 1.97102
3 -9.59561 -9.26529 0.210909
3 -2.21119 -8.84255 0.0812704
3 -2.59793 -14.5655 5.87653
3 -9.35841 -14.559 6.2696
1 -5.80575 -11.0487 11.9246
4 -5.66654 -11.4784 17.0459
4 -6.45167 -17.1503 11.9574
4 -5.62913 -5.46432 16.9724
2 -8.78023 -14.9031 9.03958
2 -8.62729 -8.95306 8.74489
2 -8.8362 -14.2461 14.778
2 -8.62648 -8.52313 15.0743
3 -7.80838 -11.9708 8.91881
3 -5.9469 -15.9309 8.61002
3 -8.8378 -11.3559 14.6599
3 -5.84475 -14.2817 14.4155
3 -2.76067 -11.6091 14.173
3 -5.7569 -8.44651 14.5778
3 -8.71272 -8.46564 11.7794
3 -2.65035 -8.61227 11.5928
3 -2.65031 -13.789 17.914
3 -8.08266 -14.2588 17.8808
4 -1.82148 -5.54368 -17.9219
4 0.500389 0.216073 -17.5507
3 2.71785 -5.70278 -14.1676
3 -0.269938 -3.36541 -15.3317
3 2.83471 -9.12506 -17.5891
3 -3.41219 -8.72608 -17.5
1 -0.325585 -5.61205 -11.8643
1 -0.0355086 -5.77925 -5.68253
1 0.0459444 -12.1657 -11.8976
1 -0.665416 0.0978121 -5.68145
2 -2.75674 -8.54711 -14.5953
2 -2.91976 -2.47779 -14.5089
2 -2.90318 -8.69488 -8.67622
2 -3.16423 -2.7959 -8.58487
3 -3.13644 -5.51734 -14.334
3 -0.043442 -8.30464 -15.5188
3 2.86151 -5.7644 -2.61982
3 -0.191929 -2.73475 -3.05896
3 -2.42782 -5.66411 -8.79973
3 -0.133532 -9.0464 -8.1726
3 2.63741 -5.88387 -9.36276
3 -0.166131 -2.31618 -8.38518
3 -2.58179 -2.50391 -11.5828
3 2.08897 -2.64928 -11.6671
3 3.17812 -7.88405 -6.13749
3 -3.68255 -8.91838 -5.86422
1 -0.059368 -5.41389 -0.033611
1 0.268028 -5.85507 5.79489
1 -0.0845933 -11.8545 -0.506922
1 -0.178314 -0.00215763 5.61545
2 -3.13684 -9.1284 -2.84974
2 -3.24594 -2.80699 -2.7968
2 -2.93068 -8.93754 2.99704
2 -2.91059 -2.7823 2.96352
3 -3.28601 -5.8035 -2.61605
3 -0.191471 -8.53575 -3.34638
3 2.46695 -6.03216 9.05835
3 0.233406 -2.891 8.13329
3 -2.59991 -5.91082 3.21868
3 -0.0426412 -8.93275 3.5328
3 2.8833 -5.69224 2.31723
3 -0.0604036 -2.73337 3.35341
3 -2.82765 -2.9989 0.16414
3 2.58093 -2.3653 0.157495
3 3.5181 -8.6171 5.67243
3 -3.55474 -8.80557 5.92128
1 0.258981 -5.50007 11.9636
4 -0.202356 -5.77849 16.7688
1 0.022701 -11.3714 11.4885
4 0.0796498 -0.644813 17.4201
2 -2.70987 -8.73805 8.69276
2 -2.7638 -2.86205 8.55591
2 -2.88958 -8.6939 14.5691
2 -2.75628 -2.80628 14.4153
3 -2.26014 -5.93576 8.49346
3 0.0258892 -9.48386 8.27039
3 -2.78183 -5.81761 14.1811
3 0.17077 -8.53209 14.3837
3 2.91164 -5.82881 14.3121
3 0.357791 -2.85438 14.6447
3 -2.55251 -3.09122 11.4951
3 3.06526 -2.65109 11.5956
3 3.36183 -8.90073 16.9775
3 -2.75759 -8.78913 17.5525
4 5.55381 0.198457 -16.2819
4 5.93401 5.39437 -16.7449
3 8.69427 -0.0320148 -14.1299
3 5.83662 3.05375 -13.997
3 8.01614 -2.82905 -17.5079
3 3.12231 -2.62604 -17.2961
1 5.82817 0.193257 -11.6788
1 5.40392 0.159071 -5.68883
1 6.1357 -5.90074 -11.5665
1 6.09345 6.2042 -6.2125
2 2.70137 -2.72256 -14.382
2 2.70975 3.0077 -14.3864
2 2.63807 -2.98045 -8.63817
2 2.75484 3.05232 -8.32211
3 2.51305 0.214834 -14.1424
3 5.70911 -2.78965 -14.1138
3 8.73598 -0.173839 -2.73955
3 5.92732 2.53393 -2.11606
3 2.70367 0.031424 -8.49038
3 5.58173 -2.89181 -9.38686
3 8.85252 -0.00853575 -9.36992
3 5.6842 3.16335 -8.79043
3 2.64355 2.8805 -11.3353
3 8.80175 3.13081 -11.532
3 8.34298 -2.67604 -5.83249
3 3.27382 -3.13833 -5.74202
1 5.98121 -0.473937 0.225154
1 6.3139 0.0713156 5.71743
1 5.77005 -6.29978 -0.42187
1 6.37101 5.9447 6.19664
2 2.85718 -2.73558 -2.7122
2 2.94405 2.95377 -2.93818
2 2.82437 -2.82266 3.14313
2 3.22713 2.72813 3.23793
3 2.64608 -0.0380734 -3.13015
3 5.88547 -3.12342 -2.47406
3 8.73514 -0.10244 8.48119
3 6.31364 3.20348 8.88367
3 3.06013 -0.0376581 4.36654
3 5.78384 -3.04082 2.67473
3 8.9849 -0.0825017 2.74488
3 5.98845 2.43594 2.69578
3 2.88323 2.0186 0.227932
3 9.60027 2.73965 -0.156614
3 8.88479 -3.36089 6.03534
3 3.38079 -3.86223 5.78569
1 5.91286 0.125922 11.5582
4 6.32826 0.297665 17.086
1 5.58595 -5.89316 11.6833
4 6.1842 5.86113 16.7064
2 3.1785 -3.14935 8.56512
2 3.15979 2.73951 8.63847
2 3.25737 -2.93727 14.6178
2 3.225 2.89223 14.5987
3 3.7635 -0.194709 8.55982
3 6.24376 -3.44854 8.86921
3 2.99224 -0.132885 14.8709
3 6.19756 -2.98721 14.054
3 9.3293 -0.17558 14.5556
3 6.19733 2.87896 14.454
3 3.13967 2.52074 11.5958
3 9.46988 2.79816 11.5493
3 8.41494 -2.99691 17.5589
3 3.48883 -3.06259 17.883
4 11.3109 6.03527 -17.143
4 11.7663 11.7574 -17.4683
3 14.5768 5.70044 -14.0568
3 11.5664 8.69652 -14.6326
3 11.8415 2.61113 -15.4187
3 8.36544 2.74541 -17.7822
1 11.5564 6.45171 -11.3401
1 11.9829 5.89623 -5.81579
1 11.5338 -0.579201 -12.0261
1 11.7944 11.4559 -5.87925
2 8.8502 2.87621 -14.546
2 8.43435 8.63205 -14.6887
2 8.52528 2.88901 -8.6178
2 8.55225 9.03027 -8.86205
3 8.87348 5.75862 -14.3062
3 12.514 3.09434 -11.7292
3 14.7188 5.70929 -2.97273
3 11.7139 8.75819 -3.2153
3 9.01608 5.97986 -8.62736
3 11.4443 2.8995 -7.65196
3 14.6486 5.89703 -8.96705
3 11.8145 8.87557 -8.78563
3 8.80847 9.02159 -11.8499
3 14.4676 9.05205 -11.6683
3 15.7566 2.95587 -6.47671
3 7.72806 2.80285 -5.71723
1 11.8732 5.7431 0.0756491
1 11.7841 5.67335 5.74135
1 11.9822 -0.152518 -0.356804
1 11.9189 11.706 5.68099
2 8.87282 2.94212 -2.91109
2 8.61489 8.5916 -3.02694
2 8.8321 2.84267 2.62157
2 9.17316 8.7731 2.769
3 8.57936 5.73592 -3.58616
3 11.7353 2.81358 -3.71399
3 14.4174 5.7393 8.74141
3 11.7786 8.81693 8.60605
3 9.1258 5.7712 2.65784
3 11.7384 2.979 3.23491
3 14.7348 5.54755 2.71008
3 12.0349 8.79865 2.65025
3 8.90711 8.45659 -0.211464
3 14.3926 8.40388 -0.144279
3 14.968 2.73344 5.63459
3 8.86582 2.80822 5.6718
1 11.8666 5.72832 11.3317
4 12.0008 6.0825 17.4861
1 12.1625 0.0634773 11.2456
4 11.8276 11.9228 16.7838
2 9.25931 2.8453 8.65567
2 8.86314 8.51288 8.85288
2 9.29078 2.81992 15.0757
2 9.046 8.87056 14.4886
3 9.35319 5.72336 8.47365
3 12.0487 2.34785 8.45153
3 9.23204 5.93394 14.6604
3 12.3074 2.46734 15.8192
3 14.3032 5.75171 14.5166
3 11.7854 8.89603 14.5437
3 8.77881 8.06222 11.5695
3 14.5017 8.40543 11.4605
3 15.4492 3.23893 17.8821
3 8.88466 2.84174 17.8302
4 16.9215 11.7796 -17.5677
3 17.5469 14.0036 -14.5846
3 14.1466 9.13727 -17.6733
4 17.0204 11.8862 -11.8179
4 17.1702 12.2047 -5.82591
4 18.3826 4.95005 -8.78746
4 16.4294 17.2479 -5.88687
2 14.5186 8.71263 -14.8082
2 14.7611 14.5406 -14.9821
2 14.7835 8.745 -8.7741
2 14.4432 14.7551 -8.97436
3 14.4536 11.7256 -14.7051
3 17.4692 9.36354 -14.5216
3 17.6002 15.0446 -3.37041
3 14.8238 11.6886 -8.82559
3 17.8901 8.72591 -8.87293
3 17.4763 14.9191 -8.8207
3 14.3392 14.5671 -11.8338
3 14.7623 8.57363 -5.95557
4 16.9713 11.2222 -0.117469
4 17.3419 10.9646 5.83651
4 17.1509 5.81036 -0.318655
4 16.9057 17.405 5.8109
2 14.6565 8.57992 -2.90372
2 14.3131 14.6664 -3.08912
2 14.8811 8.52471 2.71596
2 15.0724 14.3547 2.85364
3 14.3515 11.523 -3.15269
3 17.6931 8.48368 -2.71582
3 17.5762 15.026 8.43507
3 14.8093 11.484 2.94058
3 17.7487 8.6878 2.74931
3 17.9311 14.7682 2.8206
3 14.7546 14.2683 -0.180379
3 14.5583 8.4331 5.72125
4 16.8187 11.1995 11.4443
4 17.092 11.8018 16.63
4 16.9649 5.85384 11.4908
2 14.7199 8.57462 8.61859
2 14.6296 14.4571 8.66949
2 14.7468 8.65003 14.3593
2 14.9067 14.8852 14.4466
3 14.6084 11.4471 8.5409
3 17.848 8.52152 8.67605
3 14.4005 11.6092 14.3161
3 17.5947 8.69255 13.8848
3 18.0561 14.0481 13.8872
3 14.7884 14.2265 11.5795
3 14.8695 8.79274 17.315
4 -6.09139 -17.2297 -16.867
4 -6.1041 -17.3601 -5.55666
4 -4.35503 -18.1969 6.27061
4 -3.09738 -18.8796 11.8196
4 -0.00517773 -11.7246 -17.2933
4 1.48367 -5.68965 -17.7995
3 2.96173 -13.8115 -18.2681
3 -0.0305096 -14.8192 -14.7978
4 -0.38277 -17.3992 -11.7151
4 0.0543535 -17.2297 -6.30621
1 -0.301149 -11.9831 -5.93204
2 -2.93574 -14.6134 -14.8573
2 -2.90332 -14.8701 -8.77549
3 -3.15344 -17.6241 -14.5517
3 2.73723 -17.8101 -3.06854
3 -0.241259 -14.8549 -2.94538
3 -2.86706 -17.849 -8.98595
3 2.70306 -17.8568 -8.77026
3 -0.0825128 -14.4984 -8.76439
3 -3.05048 -14.2867 -11.909
3 2.87218 -15.2303 -12.0079
4 0.0365431 -17.0303 0.239642
4 0.563937 -17.2924 5.63401
1 0.0321527 -11.9119 5.59466
2 -3.13347 -15.0953 -2.79311
2 -3.36266 -14.8224 2.94449
3 -3.20899 -17.8784 -2.27576
3 2.93183 -17.5742 8.57615
3 -0.0936785 -14.3814 8.85318
3 -2.48582 -17.6952 2.7856
3 3.06461 -17.5847 2.54906
3 -0.282969 -14.314 2.80791
3 -3.40269 -14.4225 0.0791422
3 2.56918 -14.6102 -0.287095
4 0.146939 -17.4165 11.8993
4 -0.231628 -16.3495 17.5173
4 0.0890721 -11.4562 16.7626
2 -2.9217 -14.6938 8.71561
2 -2.96276 -14.5682 14.9693
3 -1.61719 -17.8352 8.53486
3 -3.08429 -17.5535 14.8455
3 3.0132 -17.8777 14.8
3 0.00147729 -14.7411 14.4353
3 -3.01477 -15.1017 11.6042
3 2.56892 -14.6848 11.4654
4 -0.323167 -8.94725 -19.2568
4 5.23472 -6.01983 -16.9642
3 8.2732 -11.5224 -14.3269
3 5.47033 -8.38494 -14.5213
3 8.60355 -13.5442 -17.7002
3 -0.295438 -5.94013 -20.9883
1 5.32566 -12.2333 -12.0057
1 5.49206 -12.1249 -6.27252
4 6.25745 -17.3121 -11.6139
1 5.85123 -5.6708 -5.78959
2 2.78389 -14.538 -15.4035
2 2.67962 -8.71951 -14.4121
2 2.74459 -14.8917 -9.10669
2 2.52839 -8.87892 -9.00118
3 2.70535 -11.7543 -14.4375
3 5.70177 -14.9012 -14.8658
3 8.59579 -11.8524 -2.64145
3 5.62325 -9.17151 -3.10439
3 2.91548 -11.8996 -9.02851
3 5.85529 -14.5553 -9.07863
3 8.42031 -11.9732 -9.2312
3 5.59771 -9.02016 -9.69667
3 1.53622 -8.75142 -11.6667
3 8.96276 -8.72082 -11.7488
3 8.66496 -14.2476 -6.00121
3 2.90916 -14.8247 -6.03704
1 5.57775 -11.74 -0.208587
1 5.89339 -11.7277 5.76951
4 5.43247 -17.2674 -0.250501
1 6.2951 -6.24281 5.67903
2 2.8507 -14.9243 -3.093
2 2.63039 -8.81499 -3.36045
2 2.65029 -14.7538 2.68932
2 2.77939 -8.79203 2.74863
3 2.39144 -11.6064 -3.29947
3 5.65686 -14.3556 -3.21049
3 8.69358 -11.6771 8.6879
3 5.91945 -8.60841 9.00122
3 2.81113 -11.6515 2.9614
3 5.81951 -14.5968 2.93042
3 8.71735 -11.9827 2.59397
3 5.81094 -9.04542 2.69778
3 2.78304 -8.97211 -0.25006
3 8.2694 -8.82808 -0.296603
3 8.89544 -14.7312 5.62712
3 2.69718 -14.4418 5.65928
1 5.85226 -11.4965 11.2078
4 5.99555 -11.6197 16.6274
4 5.88021 -17.112 11.4335
4 5.90362 -5.92217 16.828
2 2.85156 -14.5976 8.57408
2 2.85557 -8.89486 8.46914
2 3.00643 -14.7655 14.599
2 3.06853 -8.94252 14.1599
3 3.04226 -11.7033 8.58172
3 5.83294 -14.5422 8.54875
3 2.77387 -11.7647 14.1638
3 5.81566 -14.2919 14.1024
3 8.7449 -11.6724 14.1117