1307
 Atoms. Timestep: 1204
4 -16.8602 16.7388 -11.4595
4 -17.0933 16.4319 0.168355
4 -16.8353 16.6953 11.6679
4 -16.8473 11.6014 -16.814
3 -14.2801 11.6158 -14.2939
3 -17.4601 14.1402 -14.0862
3 -14.4266 8.74448 -17.4986
4 -16.6554 11.5486 -11.3621
4 -16.5156 11.548 -5.72682
4 -16.8272 5.93301 -11.5988
4 -16.916 16.4832 -5.68325
3 -17.4512 8.67724 -14.4408
3 -13.8848 11.5912 -2.80166
3 -17.2871 14.0814 -2.81052
3 -17.3638 8.92813 -8.71804
3 -14.0025 11.5759 -8.62544
3 -17.3022 14.1924 -8.59562
3 -14.1708 14.3465 -11.5158
3 -14.2525 8.59313 -5.74705
4 -16.6606 11.5064 0.0330036
4 -16.718 11.3988 5.9949
4 -16.8587 5.83292 0.384992
4 -16.9863 16.5931 5.91
3 -17.3885 9.20478 -2.83583
3 -14.0258 11.4928 8.79727
3 -17.3961 14.189 8.81072
3 -17.4447 8.61127 3.05302
3 -14.3592 11.5281 3.01862
3 -17.4813 14.1695 3.0823
3 -14.1799 14.2857 0.133094
3 -14.2466 8.61574 5.90235
4 -16.6638 11.444 11.5478
4 -16.8302 11.4738 16.9757
4 -16.8209 5.80365 11.7447
3 -17.3682 8.90686 8.84662
3 -17.428 8.55993 14.5806
3 -14.2663 11.4993 14.4564
3 -17.4517 14.0478 14.2715
3 -14.1948 14.2512 11.7136
3 -14.4155 8.60321 17.6377
4 -11.5723 16.9067 -16.832
3 -8.63886 17.4896 -14.4598
3 -8.66876 14.5122 -17.5276
3 -14.1884 14.2265 -17.4621
4 -11.3112 16.8878 -11.6423
4 -10.8855 16.9918 -5.84823
1 -11.5015 11.5132 -11.6657
2 -14.515 14.5762 -14.4861
2 -14.3225 14.5224 -8.59888
3 -14.1595 17.5213 -14.1172
3 -11.5403 14.314 -14.3517
3 -8.04992 17.4202 -3.14934
3 -14.6701 17.4923 -8.53753
3 -11.4353 14.7426 -8.68499
3 -8.2627 17.3358 -8.66649
3 -8.53463 14.0606 -5.75712
3 -13.9838 14.3312 -5.69239
4 -11.5246 16.978 0.541478
4 -11.4716 16.8123 5.89454
1 -11.5511 11.481 0.339736
2 -14.2975 14.5489 -2.78766
2 -14.4931 14.4312 3.03169
3 -14.9997 17.4885 -2.6652
3 -11.4744 15.2328 -2.69293
3 -8.4726 17.2961 8.93956
3 -14.6385 17.3832 3.01343
3 -11.5593 14.3105 3.09266
3 -8.86585 17.5449 3.28105
3 -8.64419 14.1957 5.91445
3 -14.2589 14.2288 5.92325
4 -11.3161 16.7743 11.7744
4 -11.5459 16.7939 16.9979
1 -11.5038 11.4199 11.7979
2 -14.4211 14.4212 8.82197
2 -14.5078 14.466 14.6794
3 -14.639 17.4148 8.70141
3 -11.5327 14.6303 8.81316
3 -14.1384 17.4172 14.3042
3 -11.5401 14.2059 14.5129
3 -8.63536 17.3711 14.5718
3 -8.64605 14.4104 17.6682
3 -14.1614 14.0967 17.6444
4 -5.713 16.6378 -11.4402
4 -5.56767 16.7402 -0.200371
4 -5.84086 16.572 11.616
4 -16.9656 0.157542 -16.737
4 -16.8198 5.89347 -16.9191
3 -14.2974 0.115873 -14.3044
3 -17.497 3.10894 -14.4851
3 -14.6132 -2.63518 -17.539
4 -16.6294 0.00660591 -11.3275
4 -16.5268 0.0388458 -5.84359
4 -16.7597 -5.45914 -11.5203
4 -16.8561 5.46923 -5.82018
3 -17.4083 -2.78873 -14.3494
3 -13.9247 0.0785112 -2.91228
3 -17.3523 2.5018 -3.1215
3 -17.2531 -2.69007 -8.78074
3 -13.855 0.058875 -8.70731
3 -17.2889 2.6286 -8.54988
3 -14.4234 2.98962 -11.5938
3 -14.2611 -2.85479 -5.82931
4 -16.6456 -0.0876474 -0.196268
4 -16.6538 0.12313 5.87255
4 -16.7474 -5.42431 -0.179147
4 -16.7918 5.73284 5.70808
3 -17.2523 -2.76204 -2.93019
3 -13.9037 0.0199882 8.64812
3 -17.3278 2.59212 8.68211
3 -17.4095 -2.79623 2.4761
3 -14.2565 0.0133225 2.89801
3 -17.4194 3.00979 3.11557
3 -14.4338 2.90598 0.0336412
3 -14.5449 -2.95195 5.71732
4 -16.63 0.0109926 11.3801
4 -16.8892 0.00588639 16.8156
4 -16.8416 -5.42696 11.4539
4 -16.8015 5.7381 17.016
3 -17.3488 -2.63205 8.82893
3 -17.4321 -2.86725 14.3918
3 -14.2821 0.0104534 14.3215
3 -17.4554 2.96355 14.5417
3 -14.3208 2.92392 11.6477
3 -14.4747 -2.80438 17.4711
4 -11.5065 5.84983 -16.9107
4 -11.5056 11.5321 -16.8927
3 -8.64272 5.82036 -14.4876
3 -11.557 8.70678 -14.4665
3 -8.98231 3.04126 -17.6496
3 -14.4811 2.96091 -17.4887
1 -11.4583 5.92223 -11.7243
1 -11.465 5.76042 -5.84479
1 -11.4492 0.18294 -11.7249
1 -11.4594 11.3445 -5.81961
2 -14.5104 2.99594 -14.505
2 -14.4824 8.74906 -14.5019
2 -14.3148 2.93224 -8.68334
2 -14.392 8.68195 -8.65271
3 -14.2735 5.86963 -14.3656
3 -11.5712 3.00234 -14.3683
3 -8.03407 5.89405 -3.02086
3 -11.5465 8.08788 -2.91299
3 -14.598 5.80496 -8.67925
3 -11.4288 3.45701 -8.97284
3 -7.98236 5.78877 -8.77394
3 -11.4583 8.23743 -8.66876
3 -14.2398 8.70421 -11.5723
3 -8.684 8.65147 -11.6644
3 -8.87648 2.96182 -5.84035
3 -13.9979 2.90025 -5.78547
1 -11.5337 5.8759 0.227841
1 -11.4708 5.7729 5.74521
1 -11.5776 0.182801 0.108491
1 -11.4945 11.4673 5.8004
2 -14.4129 2.96855 -2.88586
2 -14.449 8.69052 -2.82956
2 -14.4772 2.89878 2.93751
2 -14.4989 8.65128 3.00577
3 -14.9072 5.82246 -2.7441
3 -11.5113 3.52503 -2.67011
3 -7.89252 5.75581 8.78565
3 -11.4533 8.04841 8.78727
3 -14.2279 5.78523 2.9914
3 -11.5249 2.99851 2.75688
3 -8.52912 5.8461 3.03501
3 -11.5491 8.70202 3.06626
3 -14.2385 8.66844 0.0987011
3 -8.87139 8.63215 0.0703539
3 -8.8105 2.95465 5.83918
3 -14.0975 2.90291 5.82461
1 -11.4282 5.79027 11.8297
4 -11.4347 5.68489 17.0108
1 -11.4838 0.114674 11.6965
4 -11.4865 11.3981 17.0376
2 -14.3412 2.90466 8.72744
2 -14.368 8.60327 8.80438
2 -14.4758 2.88002 14.5712
2 -14.4548 8.62847 14.645
3 -14.7448 5.75546 8.7355
3 -11.4514 3.51545 8.89273
3 -14.2376 5.75114 14.4858
3 -11.5478 2.87705 14.4668
3 -8.6029 5.7211 14.5652
3 -11.5281 8.58381 14.5908
3 -14.232 8.59476 11.7159
3 -8.65295 8.5958 11.7476
3 -8.85649 2.77307 17.6534
3 -14.446 2.81342 17.5594
4 -5.82092 11.4614 -16.9609
4 -5.79555 16.9056 -16.8837
3 -2.89598 11.5415 -14.6104
3 -5.78012 14.2921 -14.4047
3 -3.01266 8.65659 -17.6278
3 -8.67588 8.73743 -17.583
1 -5.78729 11.5233 -11.8108
1 -5.57578 11.4613 -5.74628
1 -5.82551 5.76837 -11.9032
4 -5.66111 16.5485 -5.89569
2 -8.67372 8.70576 -14.6154
2 -8.66661 14.512 -14.5407
2 -8.54438 8.6535 -8.7186
2 -8.56525 14.3605 -8.67566
3 -8.64662 11.5887 -14.4783
3 -5.78925 8.68386 -14.4285
3 -2.4745 11.4562 -3.09868
3 -5.77139 13.9384 -2.84702
3 -9.16695 11.506 -8.80597
3 -5.71941 9.36371 -8.86146
3 -2.22365 11.4216 -8.65229
3 -5.69675 13.8735 -8.73411
3 -8.59333 14.3014 -11.6109
3 -2.87834 14.1722 -11.6599
3 -3.24201 8.36305 -5.82077
3 -8.53361 8.83014 -5.7884
1 -5.7808 11.7061 0.279399
1 -5.72954 11.5584 5.66942
1 -6.00419 6.13375 0.115505
4 -5.87838 16.6931 6.14321
2 -8.6978 8.76254 -2.86532
2 -8.65843 14.4903 -2.83976
2 -8.66715 8.74397 2.98044
2 -8.66129 14.6042 3.01769
3 -9.40033 11.6249 -2.67919
3 -5.847 9.35095 -2.57617
3 -2.19826 11.5038 8.60413
3 -5.76252 13.8757 8.79073
3 -8.65538 11.6466 2.89102
3 -5.79481 8.89658 2.80048
3 -2.85228 11.599 3.082
3 -5.76394 14.4917 2.97572
3 -8.60658 14.5328 0.0999032
3 -2.89163 14.1695 0.00102941
3 -3.06512 8.49745 5.83159
3 -8.55532 8.71517 5.87996
1 -5.79567 11.4612 11.8722
4 -5.76858 11.3469 17.0517
1 -5.823 5.68056 11.9315
4 -5.79486 16.8083 16.9987
2 -8.55395 8.60328 8.80616
2 -8.65143 14.3078 8.82823
2 -8.64326 8.60025 14.7086
2 -8.67073 14.3965 14.6817
3 -9.26928 11.4405 8.82959
3 -5.74301 9.45807 8.78909
3 -8.63839 11.4792 14.6248
3 -5.76237 8.60569 14.4883
3 -2.87573 11.5152 14.6678
3 -5.78966 14.1926 14.5177
3 -8.63741 14.1392 11.7475
3 -2.94165 14.1349 11.6851
3 -2.92076 8.54424 17.628
3 -8.61438 8.59347 17.6795
4 -0.0574891 16.7915 -16.9931
3 2.72566 17.4906 -14.5944
3 2.88761 14.4184 -17.5247
3 -2.96517 14.4898 -17.5893
4 -0.157646 16.8217 -11.6799
4 0.117329 16.8061 -5.65462
1 -0.0688116 11.4284 -11.7834
2 -2.90612 14.4584 -14.5933
2 -2.81942 14.3222 -8.73612
3 -2.87439 17.4309 -14.5046
3 -0.0319834 14.248 -14.437
3 3.0532 17.3429 -3.07118
3 -3.12608 17.3074 -8.81968
3 0.0304952 14.7258 -8.67705
3 3.25605 17.3508 -8.5718
3 2.93167 14.0454 -5.81994
3 -2.80205 14.2358 -5.82843
4 -0.0352363 16.7882 -0.0323222
4 0.250395 16.8457 5.49889
1 -0.0809208 11.6192 -0.0330716
2 -2.88633 14.366 -2.91983
2 -2.86932 14.5748 2.91071
3 -2.92003 17.3243 -2.94698
3 0.0124995 14.4167 -2.86499
3 3.28034 17.3935 8.35085
3 -2.68246 17.5077 2.62329
3 0.00585859 14.3162 2.81685
3 3.05772 17.3354 2.90562
3 2.90414 14.0306 5.72205
3 -2.87709 14.4804 5.82426
4 -0.311774 16.8633 11.7105
4 -0.0695997 16.7798 17.0033
1 -0.0949293 11.4438 11.7693
2 -2.87328 14.3888 8.74688
2 -2.9187 14.4253 14.6267
3 -3.32019 17.36 9.02239
3 -0.0294629 14.9205 8.61579
3 -2.94716 17.3954 14.5719
3 -0.0461092 14.268 14.411
3 2.65612 17.5579 14.5858
3 2.91829 14.4454 17.4421
3 -2.915 14.4345 17.6324
4 5.84311 16.6682 -11.3334
4 5.86302 16.6288 -0.0621536
4 5.81741 16.7389 11.1692
4 -16.8021 -11.3739 -16.8253
4 -16.7765 -5.61458 -16.8775
3 -14.3184 -11.4221 -14.2194
3 -17.4793 -8.43813 -14.5559
3 -14.166 -13.9924 -17.4636
4 -16.8016 -11.4274 -11.3209
4 -16.6551 -11.3503 -5.81444
4 -16.909 -16.6652 -11.5446
4 -16.6931 -5.77076 -5.74854
3 -17.5087 -13.9735 -14.1252
3 -14.2981 -11.5449 -2.84798
3 -17.3819 -8.60753 -3.29596
3 -17.4505 -14.239 -8.62554
3 -14.1432 -11.4915 -8.64908
3 -17.373 -8.72884 -8.47254
3 -14.5718 -8.48875 -11.5465
3 -14.2759 -14.2528 -5.78595
4 -16.8141 -11.645 0.0691365
4 -16.5967 -11.5601 5.68804
4 -16.881 -16.8303 -0.0559279
4 -16.7342 -6.08875 5.61916
3 -17.4679 -14.3825 -2.85253
3 -14.138 -11.5965 8.55349
3 -17.4029 -8.93199 8.23979
3 -17.4113 -14.4191 2.8307
3 -14.1449 -11.626 2.80661
3 -17.3634 -8.94303 3.13206
3 -14.8177 -8.58652 -0.0502579
3 -14.2003 -14.4137 5.70003
4 -16.8368 -11.6291 11.177
4 -16.7726 -11.5196 16.7556
4 -16.8617 -16.814 11.4507
4 -16.7255 -5.71513 16.8839
3 -17.4124 -14.4075 8.51647
3 -17.4894 -14.1278 14.0351
3 -14.3428 -11.5274 14.0903
3 -17.5408 -8.53931 14.634
3 -14.8319 -8.56164 11.4482
3 -14.1329 -14.1085 17.3679
4 -11.3695 -5.86765 -16.8279
4 -11.5828 0.23924 -16.9364
3 -8.65459 -5.72816 -14.2724
3 -11.5345 -2.77187 -14.7212
3 -8.79058 -8.64476 -17.4296
3 -14.3155 -8.51339 -17.4272
1 -11.4613 -5.61965 -11.5767
1 -11.5977 -5.76343 -5.79363
1 -11.4903 -11.4221 -11.501
1 -11.3866 -0.105094 -5.76109
2 -14.4918 -8.5393 -14.4471
2 -14.4361 -2.7673 -14.5499
2 -14.4014 -8.5962 -8.65239
2 -14.2744 -2.81826 -8.71766
3 -14.2142 -5.64956 -14.3351
3 -11.553 -8.5698 -14.1523
3 -8.29741 -5.68222 -2.95807
3 -11.3854 -3.09776 -3.19965
3 -14.4122 -5.70888 -8.65813
3 -11.4845 -8.35469 -9.04266
3 -8.08635 -5.69483 -8.70152
3 -11.3661 -3.26374 -8.50679
3 -14.0731 -2.77068 -11.6201
3 -8.87413 -2.75234 -11.6518
3 -9.21551 -8.59413 -5.73411
3 -13.9585 -8.67093 -5.77035
1 -11.4814 -5.59325 -0.0746433
1 -11.6683 -5.75091 5.60319
1 -11.4671 -11.6493 -0.0524796
1 -11.4887 0.0117962 5.62392
2 -14.4122 -8.63397 -2.89533
2 -14.3004 -2.81459 -2.9409
2 -14.3925 -8.70839 2.79535
2 -14.476 -2.88142 2.82263
3 -14.241 -5.73205 -2.92601
3 -11.4786 -8.59421 -2.35
3 -8.19522 -5.71527 8.69117
3 -11.4695 -3.30486 8.36362
3 -14.3322 -5.78663 2.77715
3 -11.4853 -8.55934 2.21353
3 -8.4387 -5.73305 2.92249
3 -11.5131 -2.95679 3.11709
3 -14.0027 -2.78184 -0.0522049
3 -8.85626 -2.8772 -0.0204167
3 -9.35026 -8.63179 5.69898
3 -13.9401 -8.74805 5.68368
1 -11.496 -5.60923 11.4933
4 -11.4705 -5.92159 16.7103
1 -11.466 -11.5634 11.4139
4 -11.5 -0.0120106 16.9183
2 -14.4373 -8.68584 8.57442
2 -14.3794 -2.86597 8.61111
2 -14.5568 -8.64114 14.3318
2 -14.4669 -2.86932 14.4643
3 -14.5053 -5.78018 8.56554
3 -11.5429 -8.46814 9.12068
3 -14.2848 -5.74575 14.2177
3 -11.6084 -8.64422 13.9777
3 -8.70674 -5.79257 14.1936
3 -11.5671 -2.88792 14.5287
3 -14.134 -2.80649 11.5265
3 -8.89421 -2.79222 11.5658
3 -8.91583 -8.67502 17.3485
3 -14.29 -8.62954 17.3173
4 -5.74258 -0.238796 -16.9415
4 -5.79944 5.90731 -16.9891
3 -2.86324 -0.0193184 -14.5432
3 -5.79089 2.86926 -14.7584
3 -3.15755 -3.06469 -17.5432
3 -8.45798 -3.0274 -17.5451
1 -5.83608 0.152025 -11.8649
1 -5.28158 -0.154505 -5.84774
1 -5.78738 -5.76501 -11.7204
1 -5.68153 5.42357 -5.84087
2 -8.64448 -2.84549 -14.5918
2 -8.68511 2.93853 -14.6963
2 -8.48758 -2.77902 -8.73529
2 -8.55757 2.91555 -8.76456
3 -8.66437 0.0515071 -14.5476
3 -5.75857 -2.86719 -14.2057
3 -2.29225 0.0400111 -3.23574
3 -5.77308 2.36287 -3.21844
3 -9.18286 0.0676511 -8.78825
3 -5.63183 -2.24716 -9.06713
3 -2.21878 -0.00132263 -8.55246
3 -5.70893 2.24953 -8.58632
3 -8.45696 2.92027 -11.7246
3 -3.0891 2.76241 -11.7166
3 -3.04645 -3.10577 -5.81376
3 -8.12006 -2.66042 -5.82508
1 -6.12815 0.260697 0.0133593
1 -5.52284 -0.0981694 5.73461
1 -5.94129 -5.38547 0.0109476
1 -5.73451 5.72328 5.68924
2 -8.52055 -2.73616 -2.93551
2 -8.63061 3.02625 -2.92112
2 -8.59541 -2.82626 2.8906
2 -8.6222 2.94634 2.93299
3 -9.10805 0.140375 -2.67972
3 -5.65423 -2.331 -2.58075
3 -2.21758 0.0534651 8.56954
3 -5.73925 2.1522 8.65116
3 -8.89258 0.0634967 2.75746
3 -5.70414 -2.42471 2.54893
3 -2.36887 0.0587931 3.23232
3 -5.75067 2.58198 3.16045
3 -8.45171 3.21208 0.015732
3 -3.20573 2.63119 0.00222707
3 -3.15907 -3.00726 5.80618
3 -8.20453 -2.76704 5.76651
1 -5.79308 0.10226 11.8479
4 -5.85794 -0.244602 16.9231
1 -5.8299 -5.77126 11.6643
4 -5.66946 5.78133 17.0014
2 -8.58848 -2.78763 8.65924
2 -8.57723 2.89868 8.76001
2 -8.68299 -2.9161 14.501
2 -8.66421 2.84096 14.6937
3 -9.3125 0.05895 8.67817
3 -5.72117 -2.24837 8.98625
3 -8.67396 -0.0288028 14.4386
3 -5.80151 -2.89746 14.1942
3 -2.88551 -0.023847 14.5996
3 -5.77646 2.81961 14.6794
3 -8.53671 2.8895 11.716
3 -3.06381 2.74921 11.6951
3 -3.26467 -3.10072 17.546
3 -8.63244 -3.00796 17.4643
4 -0.0414267 5.66113 -16.949
4 0.0541816 11.4557 -16.9663
3 2.88904 5.78049 -14.6
3 -0.025504 8.60749 -14.5671
3 2.80826 2.77303 -17.5345
3 -2.64432 2.89497 -17.6286
1 -0.0898879 5.86204 -11.8685
1 0.301241 5.57621 -5.82369
1 -0.103687 0.1116 -11.7725
1 0.130203 11.5384 -5.75611
2 -2.89624 2.87128 -14.6807
2 -2.91051 8.65083 -14.6627
2 -2.83398 2.88302 -8.77514
2 -2.90017 8.55879 -8.73924
3 -2.94866 5.7628 -14.4762
3 -0.0145837 2.93597 -14.3134
3 3.34665 5.68653 -3.29174
3 -0.111233 8.11717 -3.13023
3 -3.58666 5.71958 -8.98524
3 0.0198743 3.48756 -9.0477
3 3.4864 5.69806 -8.45542
3 -0.0332005 7.91286 -8.68666
3 -2.80969 8.72067 -11.7011
3 2.75002 8.47409 -11.6723
3 2.48089 2.50578 -5.81395
3 -2.6529 3.16752 -5.84347
1 -0.472434 5.99944 0.000370959
1 0.235293 5.66779 5.75833
1 -0.17988 0.470931 -0.000939896
1 0.044016 11.5038 5.61115
2 -2.8941 2.90328 -2.9216
2 -3.01506 8.6088 -2.91447
2 -2.85511 2.92425 2.92214
2 -2.90506 8.68025 2.93407
3 -3.51279 5.75365 -2.57386
3 -0.0116108 3.41907 -2.56957
3 3.48061 5.76375 8.42685
3 -0.0499388 7.94586 8.69574
3 -3.30274 5.80087 2.61305
3 0.0131685 3.40391 2.55405
3 3.33904 5.71044 3.24187
3 -0.0396692 8.3162 3.08811
3 -2.78029 8.94548 0.0165025
3 2.52925 8.26873 -0.0300494
3 2.45312 2.57488 5.79366
3 -2.73832 3.27914 5.82943
1 -0.0321845 5.87961 11.8509
4 -0.0527566 5.7054 16.9214
1 -0.137809 0.0995334 11.7779
4 0.130989 11.4935 16.94
2 -2.89093 2.94036 8.74727
2 -2.91647 8.63096 8.75457
2 -2.88488 2.86531 14.6579
2 -2.88259 8.62922 14.6613
3 -3.66707 5.78636 8.94266
3 -0.0224218 3.56925 8.97992
3 -2.90542 5.75163 14.4009
3 -0.00931511 2.94648 14.3108
3 2.88842 5.84324 14.5838
3 -0.0010943 8.64782 14.5293
3 -2.84782 8.78274 11.701
3 2.76514 8.52873 11.6214
3 2.8023 2.81597 17.5134
3 -2.70071 3.01295 17.6074
4 5.64519 11.5048 -16.8876
4 5.71314 16.9067 -16.8074
3 8.55542 11.5681 -14.5896
3 5.7214 14.3091 -14.308
3 8.67638 8.54032 -17.4912
3 2.93447 8.86217 -17.5921
1 5.65908 11.5023 -11.69
1 5.89374 11.3927 -5.76168
1 5.62373 5.86084 -11.7172
4 5.70741 16.6155 -5.78371
2 2.86192 8.66983 -14.6322
2 2.84432 14.5062 -14.5386
2 2.82785 8.56778 -8.72989
2 2.8838 14.3796 -8.71321
3 2.83677 11.5631 -14.3693
3 5.73978 8.67879 -14.3616
3 8.86501 11.4074 -3.22175
3 5.76595 14.0322 -2.92471
3 2.36088 11.4706 -8.9713
3 5.70548 9.11722 -8.84696
3 8.97575 11.4419 -8.42335
3 5.75317 13.916 -8.70737
3 2.8288 14.4664 -11.6258
3 8.60748 14.1261 -11.5801
3 8.47474 8.14905 -5.80137
3 2.90347 8.932 -5.83157
1 5.58675 11.541 -0.057516
1 5.90455 11.4213 5.65765
1 5.5477 6.03383 -0.0356032
4 5.70966 16.6168 5.62136
2 2.79232 8.53931 -2.9414
2 2.89274 14.3843 -2.94065
2 2.86001 8.56289 2.87836
2 2.89524 14.379 2.83954
3 2.58698 11.4427 -2.66709
3 5.70712 8.89782 -2.68719
3 8.95855 11.4897 8.34787
3 5.70771 13.9497 8.60353
3 2.63781 11.449 2.55536
3 5.74442 8.91382 2.59578
3 8.89349 11.4175 3.1125
3 5.76954 14.0355 2.80935
3 2.89782 14.4095 -0.0501925
3 8.62004 13.9862 -0.0585749
3 8.4639 8.18622 5.72405
3 2.91051 8.97864 5.77256
1 5.674 11.5683 11.6095
4 5.6834 11.6101 16.7853
1 5.62674 5.91524 11.6751
4 5.70323 16.9707 16.7152
2 2.80573 8.63891 8.67598
2 2.81861 14.4323 8.6167
2 2.88256 8.73709 14.579
2 2.82825 14.5787 14.4488
3 2.26263 11.5347 8.90897
3 5.68822 9.19439 8.76962
3 2.85603 11.6319 14.2763
3 5.75234 8.75592 14.285
3 8.55358 11.6604 14.4423
3 5.70507 14.4077 14.1797
3 2.7671 14.5948 11.5351
3 8.5893 14.2228 11.4596
3 8.67842 8.68871 17.4135
3 3.0175 8.95046 17.5353
4 11.4722 16.8969 -16.769
3 14.0631 17.5085 -14.0897
3 14.1009 14.2185 -17.4708
3 8.57157 14.5717 -17.4976
4 11.2995 16.777 -11.517
4 11.4147 16.8093 -5.77843
1 11.489 11.5075 -11.4842
2 8.61171 14.4732 -14.5074
2 8.62752 14.3511 -8.68588
3 8.56829 17.4438 -14.3207
3 11.4892 14.272 -14.3132
3 14.5266 17.4148 -2.93838
3 8.56782 17.3335 -8.74557
3 11.5262 14.4392 -8.66323
3 14.49 17.4575 -8.56305
3 14.2606 14.2516 -5.79686
3 8.61392 14.3554 -5.8072
4 11.2704 16.7356 -0.0623927
4 11.3816 16.8374 5.65992
1 11.5124 11.5037 -0.048555
2 8.64381 14.336 -2.93091
2 8.64626 14.341 2.81207
3 8.58181 17.3067 -2.80323
3 11.5377 14.3781 -2.92547
3 14.4492 17.5115 8.44313
3 8.56816 17.311 2.68711
3 11.5365 14.403 2.81329
3 14.5182 17.4346 2.80398
3 14.2418 14.2898 5.691
3 8.60438 14.3535 5.68975
4 11.2881 16.8578 11.3788
4 11.4489 16.992 16.6558
1 11.4686 11.5838 11.3964
2 8.59082 14.398 8.56624
2 8.59517 14.5688 14.3835
3 8.54985 17.3798 8.58063
3 11.4982 14.4823 8.55453
3 8.54903 17.5372 14.2139
3 11.4723 14.3717 14.1966
3 14.0381 17.6026 13.9657
3 14.0809 14.3295 17.3634
3 8.56374 14.6285 17.3749
4 16.7816 16.8199 -11.506
4 16.8743 16.7047 -0.059618
4 16.7542 16.9031 11.3832
4 -16.9274 -16.6987 -5.79157
4 -16.8674 -16.8438 5.69329
4 -11.6047 -16.7204 -16.8345
4 -11.5177 -11.3048 -16.746
3 -8.73147 -17.4058 -14.415
3 -11.5933 -14.1736 -14.2977
4 -11.4838 -16.7724 -11.5448
4 -11.4527 -16.8428 -5.76974
1 -11.4738 -11.6112 -5.73208
2 -14.5609 -14.3841 -14.5097
2 -14.479 -14.4187 -8.67206
3 -14.2261 -17.3511 -14.17
3 -8.74846 -17.4989 -3.01843
3 -11.5635 -14.4082 -2.92058
3 -14.5762 -17.408 -8.65072
3 -8.62779 -17.4244 -8.69042
3 -11.5722 -14.4787 -8.6319
3 -14.2804 -14.2146 -11.5456
3 -8.69606 -14.2826 -11.5628
4 -11.4128 -16.9226 -0.120218
4 -11.3354 -16.9489 5.72368
1 -11.469 -11.7265 5.68267
2 -14.4891 -14.4683 -2.91566
2 -14.4379 -14.5616 2.82768
3 -14.5087 -17.4573 -2.96253
3 -8.58026 -17.4879 8.604
3 -11.5313 -14.541 8.56649
3 -14.5387 -17.5532 2.80262
3 -8.56684 -17.5272 2.89702
3 -11.5277 -14.5941 2.8209
3 -14.2345 -14.3835 -0.0432157
3 -8.62554 -14.4305 -0.0419677
4 -11.4317 -16.8651 11.4597
4 -11.5612 -16.82 16.7416
4 -11.5624 -11.36 16.6233
2 -14.4397 -14.5356 8.58182
2 -14.5394 -14.4963 14.416
3 -14.5001 -17.5272 8.56648
3 -14.1758 -17.4641 14.0798
3 -8.68583 -17.4819 14.3242
3 -11.574 -14.2613 14.2117
3 -14.2539 -14.3437 11.4531
3 -8.66134 -14.3535 11.4886
4 -5.79311 -11.4949 -16.8345
4 -5.80015 -5.69018 -16.796
3 -2.95044 -11.5849 -14.3442
3 -5.7888 -8.59955 -14.5184
3 -3.02937 -14.3781 -17.4422
3 -8.66122 -14.3823 -17.4686
1 -5.86159 -11.538 -11.4637
1 -5.68555 -11.8369 -5.71678
4 -5.89743 -16.7639 -11.4265
1 -5.66629 -5.85237 -5.77727
2 -8.7235 -14.4217 -14.4904
2 -8.66839 -8.61913 -14.4494
2 -8.69095 -14.4506 -8.67777
2 -8.59736 -8.5875 -8.5912
3 -8.65401 -11.5051 -14.3464
3 -5.84087 -14.2894 -14.2678
3 -2.80523 -11.5792 -3.03821
3 -5.74245 -8.87652 -3.55588
3 -8.90114 -11.5123 -8.66889
3 -5.80616 -14.1876 -8.64634
3 -2.65216 -11.583 -8.48503
3 -5.74573 -9.04215 -8.1299
3 -8.34196 -8.65623 -11.515
3 -3.22733 -8.83188 -11.5057
3 -2.89729 -14.5609 -5.76135
3 -8.65794 -14.2931 -5.79165
1 -5.84751 -11.7071 -0.06683
1 -5.696 -11.8257 5.72134
4 -5.70251 -16.8348 0.0196047
1 -5.72478 -5.79232 5.76795
2 -8.67575 -14.5329 -2.91876
2 -8.57935 -8.61817 -2.87022
2 -8.64892 -14.559 2.83661
2 -8.61236 -8.6664 2.85052
3 -8.71991 -11.5675 -2.82426
3 -5.79142 -14.3876 -2.90954
3 -2.74912 -11.5575 8.51921
3 -5.78872 -8.95445 8.03901
3 -8.8058 -11.5983 2.77212
3 -5.78041 -14.292 2.84962
3 -2.78496 -11.5534 3.02487
3 -5.77854 -8.84899 3.57421
3 -7.92776 -8.58004 -0.00894444
3 -3.3537 -8.93298 0.00201671
3 -2.88997 -14.4851 5.74273
3 -8.62099 -14.3501 5.71607
1 -5.82499 -11.6043 11.3993
4 -5.80377 -11.5781 16.7852
4 -5.83728 -16.8292 11.3485
4 -5.91874 -5.68974 16.7753
2 -8.65584 -14.5125 8.60241
2 -8.66082 -8.61905 8.54394
2 -8.70255 -14.4952 14.4181
2 -8.72002 -8.68578 14.3664
3 -8.84641 -11.5659 8.57912
3 -5.7824 -14.2611 8.58897
3 -8.65849 -11.5758 14.2851
3 -5.8217 -14.3525 14.2028
3 -2.96732 -11.6016 14.2843
3 -5.83821 -8.62795 14.5554
3 -8.27245 -8.74017 11.4517
3 -3.30267 -8.79647 11.4919
3 -3.02443 -14.4167 17.3989
3 -8.629 -14.4802 17.3951
4 -0.11084 -6.07509 -16.8326
4 0.0885027 0.127496 -16.9078
3 2.86052 -5.81774 -14.5642
3 0.011773 -2.94408 -14.7433
3 2.61341 -8.98041 -17.4063
3 -2.75688 -8.81324 -17.4133
1 -0.0281623 -5.70618 -11.709
1 0.46221 -6.00715 -5.81549
1 -0.257827 -11.5097 -11.4836
1 0.233974 -0.495797 -5.84673
2 -2.91056 -8.69652 -14.4458
2 -2.87283 -2.91744 -14.5946
2 -2.87667 -8.63669 -8.59858
2 -2.78875 -2.89843 -8.74282
3 -2.90298 -5.80579 -14.2847
3 -0.0313494 -8.70885 -14.0654
3 3.42062 -5.82001 -3.26163
3 0.0640748 -3.4409 -3.22783
3 -3.40265 -5.76542 -8.87963
3 0.0178294 -8.34165 -9.07001
3 3.39947 -5.85896 -8.40635
3 0.0775849 -3.49322 -8.45949
3 -2.51053 -2.79277 -11.6562
3 2.68707 -3.13858 -11.642
3 2.51528 -9.09195 -5.77923
3 -2.28406 -8.47221 -5.74054
1 -0.329054 -5.53834 0.0119406
1 0.425603 -5.98756 5.83116
1 -0.294023 -11.4825 0.00753039
1 0.202213 -0.431276 5.83575
2 -2.89777 -8.61781 -2.8752
2 -2.7854 -2.84024 -2.89228
2 -2.92395 -8.60867 2.8842
2 -2.817 -2.82579 2.8978
3 -3.31704 -5.71497 -2.57038
3 0.0095466 -8.29668 -2.41728
3 3.3454 -5.80984 8.40541
3 0.0238408 -3.43018 8.44163
3 -3.31251 -5.70844 2.5959
3 -0.00464764 -8.29415 2.43083
3 3.38921 -5.80445 3.29095
3 0.0367968 -3.40211 3.25709
3 -2.45974 -2.48738 0.00455401
3 2.65772 -3.25037 0.00880663
3 2.49166 -9.06625 5.806
3 -2.28488 -8.4832 5.74419
1 -0.120453 -5.67264 11.6778
4 -0.187782 -6.06949 16.8176
1 -0.261293 -11.5023 11.4614
4 0.115143 0.156061 16.9018
2 -2.92384 -8.60506 8.59049
2 -2.85251 -2.82815 8.72448
2 -2.9612 -8.70613 14.4302
2 -2.92223 -2.92245 14.6047
3 -3.38985 -5.72065 8.85867
3 -0.0204421 -8.35777 9.08602
3 -2.96656 -5.80857 14.2718
3 -0.0779766 -8.6858 14.0364
3 2.81443 -5.76385 14.5963
3 -0.0366519 -2.91802 14.7302
3 -2.61457 -2.74599 11.6518
3 2.60947 -3.11802 11.6372
3 2.53366 -8.94128 17.4155
3 -2.77568 -8.86135 17.3953
4 5.68945 -0.041684 -16.8217
4 5.91849 5.82329 -16.8599
3 8.61536 0.053792 -14.511
3 5.75733 2.91442 -14.5095
3 8.58354 -2.95197 -17.4443
3 3.21397 -2.79385 -17.5373
1 5.61823 0.124621 -11.6911
1 6.16668 -0.347239 -5.78459
1 5.67262 -5.65906 -11.6485
1 6.01036 5.32965 -5.78861
2 2.89609 -2.90901 -14.5947
2 2.87124 2.88462 -14.5773
2 2.95803 -2.9489 -8.7309
2 2.8676 2.81407 -8.70462
3 2.81752 -0.0077463 -14.2762
3 5.77565 -2.81297 -14.1601
3 9.0853 -0.143463 -3.34591
3 5.77593 2.3527 -3.26401
3 2.36794 -0.0738311 -9.02586
3 5.83355 -2.45186 -9.02737
3 9.17399 -0.0656488 -8.26596
3 5.75744 2.27074 -8.36402
3 3.0822 3.05312 -11.6247
3 8.44564 2.59715 -11.5396
3 8.44011 -3.40306 -5.7819
3 3.2504 -2.67985 -5.81662
1 5.27968 0.0693309 0.00226474
1 6.14956 -0.315028 5.78881
1 5.72754 -5.40779 0.0121158
1 5.99501 5.36295 5.75278
2 2.93266 -2.9462 -2.90244
2 2.86592 2.81767 -2.9253
2 2.91175 -2.93086 2.91878
2 2.88445 2.83373 2.9083
3 2.39536 -0.0690901 -2.58515
3 5.8166 -2.50493 -2.57087
3 9.13114 -0.0173269 8.26608
3 5.72999 2.32932 8.34588
3 2.39538 -0.0519147 2.58578
3 5.80113 -2.49928 2.58773
3 9.07316 -0.124756 3.3435
3 5.78164 2.37004 3.25509
3 3.18231 3.12551 -0.0110453
3 8.33333 2.09271 -0.009648
3 8.41596 -3.369 5.80227
3 3.22431 -2.62239 5.82587
1 5.60668 0.204243 11.6663
4 5.6591 0.0368462 16.799
1 5.63564 -5.60165 11.6534
4 5.93219 5.94012 16.8186
2 2.91022 -2.89574 8.73342
2 2.82973 2.88229 8.68291
2 2.85306 -2.85534 14.5807
2 2.87244 2.94275 14.5563
3 2.3525 -0.0120255 9.03469
3 5.79519 -2.4259 9.05003
3 2.8074 0.0469699 14.2348
3 5.7373 -2.74187 14.1407
3 8.59507 0.141957 14.5046
3 5.75349 2.9994 14.4887
3 3.05551 3.14231 11.6021
3 8.4281 2.67813 11.5171
3 8.51736 -2.85243 17.4499
3 3.15501 -2.67142 17.5218
4 11.3869 5.81567 -16.7621
4 11.4872 11.4688 -16.8675
3 14.2479 5.85663 -14.3059
3 11.5204 8.69403 -14.3747
3 14.3738 2.97336 -17.4571
3 8.80077 3.10786 -17.4469
1 11.4743 5.91108 -11.5632
1 11.711 5.78975 -5.84086
1 11.4993 0.198207 -11.5433
1 11.612 11.4269 -5.7781
2 8.6434 2.93317 -14.4723
2 8.63111 8.68569 -14.5255
2 8.63606 2.80176 -8.6193
2 8.56975 8.5634 -8.68939
3 8.61261 5.81042 -14.1432
3 11.534 2.98987 -14.2491
3 14.4576 5.71403 -2.89224
3 11.5208 8.39274 -3.08042
3 8.17384 5.68429 -9.00533
3 11.5034 3.2239 -8.9695
3 14.4591 5.774 -8.65945
3 11.5093 8.39467 -8.62528
3 8.68893 8.89753 -11.5896
3 14.2721 8.6882 -11.5707
3 14.0549 2.80777 -5.76187
3 9.05074 3.19484 -5.72808
1 11.4594 5.93456 -0.0325609
1 11.7121 5.81816 5.78573
1 11.5764 -0.0728611 -0.000528086
1 11.6038 11.455 5.69862
2 8.71176 2.71789 -2.83661
2 8.59684 8.50728 -2.91678
2 8.71318 2.73476 2.81313
2 8.62245 8.51527 2.83581
3 8.34015 5.61331 -2.46353
3 11.63 2.95911 -2.35167
3 14.4398 5.82503 8.61433
3 11.4973 8.44953 8.53681
3 8.33685 5.62304 2.40192
3 11.6292 2.98857 2.32783
3 14.4875 5.72824 2.84401
3 11.5369 8.38978 3.01116
3 8.84939 8.87746 -0.0430206
3 14.1276 8.6836 -0.0360593
3 14.0463 2.83606 5.73883
3 9.04426 3.23112 5.70209
1 11.467 5.9869 11.5064
4 11.3926 5.93358 16.715
1 11.4807 0.272651 11.5377
4 11.4559 11.5878 16.7676
2 8.61502 2.85539 8.59355
2 8.55189 8.61325 8.61008
2 8.63863 3.02164 14.4502
2 8.63723 8.77567 14.4465
3 8.15901 5.73911 8.94823
3 11.4871 3.26575 8.94333
3 8.61623 5.89643 14.1034
3 11.5272 3.08582 14.216
3 14.2459 5.95171 14.2516
3 11.5205 8.78811 14.3036
3 8.69381 8.94102 11.5082
3 14.2587 8.76504 11.4974
3 14.3662 3.09549 17.4276
3 8.8111 3.23398 17.4218
4 16.7846 11.6056 -16.8323
3 17.4168 14.1839 -14.1312
3 14.3739 8.72984 -17.4806
4 16.7348 11.509 -11.4442
4 16.7723 11.4443 -5.79687
4 16.8258 5.88461 -11.5199
4 16.9099 16.6998 -5.77725
2 14.4438 8.73311 -14.4952
2 14.457 14.563 -14.5107
2 14.4674 8.65591 -8.68899
2 14.4378 14.4749 -8.67663
3 14.2513 11.5991 -14.2846
3 17.4207 8.69065 -14.4431
3 17.4355 14.2812 -2.91162
3 14.2138 11.5387 -8.64308
3 17.4397 8.79237 -8.77029
3 17.4183 14.3226 -8.66755
3 14.2045 14.3102 -11.551
3 14.3957 8.59075 -5.80272
4 16.7114 11.4318 -0.0479789
4 16.7645 11.4895 5.71116
4 16.8791 6.08104 -0.0381989
4 16.8807 16.749 5.66347
2 14.4673 8.60659 -2.91313
2 14.4532 14.4341 -2.92521
2 14.4819 8.62211 2.84109
2 14.45 14.4515 2.8186
3 14.2424 11.5031 -2.93463
3 17.4265 8.81027 -2.80566
3 17.3937 14.3877 8.56289
3 14.2382 11.5194 2.84669
3 17.438 8.8427 2.71213
3 17.4309 14.3081 2.81753
3 14.2228 14.2564 -0.0531626
3 14.4104 8.61759 5.73168
4 16.72 11.5872 11.3561
4 16.7713 11.72 16.7409
4 16.8167 5.96113 11.4656
2 14.4569 8.70858 8.61695
2 14.4112 14.5288 8.56839
2 14.4411 8.83058 14.4217
2 14.4388 14.6603 14.401
3 14.2021 11.5916 8.55258
3 17.4299 8.84372 8.71192
3 14.2355 11.6951 14.1956
3 17.416 8.7912 14.3707
3 17.3987 14.2833 14.0239
3 14.1866 14.3851 11.4427
3 14.3658 8.84379 17.4076
4 -5.85866 -16.8254 -16.8256
4 -5.87936 -16.8336 -5.85334
4 -5.79224 -16.8454 5.7179
4 -5.8184 -16.9019 16.7473
4 -0.133788 -16.6718 -16.9584
4 -0.0276967 -11.5171 -16.6494
3 2.80215 -17.571 -14.8836
3 -0.0764735 -14.3493 -14.18
4 -0.39241 -16.9693 -11.4597
4 0.169975 -16.8645 -5.64243
1 -0.0969411 -11.7527 -5.68056
2 -2.96242 -14.4921 -14.4534
2 -2.92195 -14.5413 -8.64478
3 -2.95638 -17.4623 -14.4725
3 2.9062 -17.3825 -2.92591
3 -0.0384231 -14.444 -2.87962
3 -3.20719 -17.5016 -8.8317
3 2.95987 -17.5614 -8.15048
3 -0.0313578 -14.5703 -8.61498
3 -3.01821 -14.2977 -11.5266
3 2.84629 -15.1111 -11.5331
4 -0.11911 -16.8475 0.0140639
4 0.10759 -16.8302 5.70861
1 -0.118172 -11.7232 5.70438
2 -2.90851 -14.566 -2.87315
2 -2.90661 -14.5263 2.85622
3 -2.94639 -17.5195 -2.69124
3 2.85517 -17.5191 8.23543
3 -0.01985 -14.4378 8.62684
3 -3.01143 -17.4832 2.77612
3 2.88866 -17.3746 2.99573
3 -0.0403291 -14.4486 2.89885
3 -2.94898 -14.2186 -0.00971741
3 2.79959 -14.4776 0.0204104
4 -0.291527 -16.9486 11.3804
4 -0.101966 -16.6872 16.9193
4 -0.0653822 -11.5093 16.6248
2 -2.90166 -14.5285 8.61735
2 -2.94399 -14.5161 14.4164
3 -3.07161 -17.4965 8.72357
3 -2.89501 -17.4912 14.4151
3 2.888 -17.5204 14.88
3 -0.0621182 -14.3443 14.1583
3 -2.98948 -14.3462 11.4944
3 2.89013 -15.018 11.5661
4 5.47268 -11.5431 -16.7805
4 5.91084 -5.57408 -16.7748
3 8.52118 -11.4837 -14.5977
3 5.74663 -8.58393 -14.557
3 8.57892 -14.3856 -17.5484
3 2.7765 -14.2595 -17.3811
1 5.74642 -11.5198 -11.4988
1 6.01573 -11.8595 -5.87255
4 6.08595 -16.8959 -11.5001
1 6.03306 -6.23512 -5.81494
2 2.81838 -14.5988 -14.3923
2 2.85581 -8.73396 -14.4533
2 2.87149 -14.6188 -8.6668
2 2.89335 -8.77996 -8.67165
3 2.80277 -11.6474 -14.0282
3 5.71759 -14.3143 -14.2375
3 9.16103 -11.7309 -3.15908
3 5.75796 -9.23795 -3.34839
3 2.68985 -11.6896 -9.16877
3 5.78156 -14.3715 -8.69221
3 8.83851 -11.628 -8.51863
3 5.78921 -9.11932 -8.34142
3 3.21083 -8.44152 -11.5512
3 8.46337 -8.93439 -11.5746
3 8.64434 -14.656 -5.81542
3 2.90397 -14.0724 -5.7762
1 5.42188 -11.6023 0.0263216
1 5.99196 -11.8344 5.94177
4 5.66001 -16.7151 0.0363818
1 6.01162 -6.19962 5.84021
2 2.86065 -14.417 -2.87031
2 2.90728 -8.67015 -2.85365
2 2.85572 -14.4087 2.91108
2 2.8935 -8.66032 2.88368
3 2.48457 -11.5215 -2.51602
3 5.76525 -14.0858 -2.84249
3 8.80296 -11.5897 8.58003
3 5.77091 -9.05089 8.3755
3 2.47431 -11.5133 2.54588
3 5.75965 -14.0738 2.90987
3 9.15643 -11.7188 3.23986
3 5.74471 -9.22412 3.39715
3 3.48202 -8.33789 0.0162055
3 8.26342 -9.20269 0.0276088
3 8.62979 -14.6497 5.9011
3 2.88992 -14.0483 5.81176
1 5.73616 -11.477 11.5439
4 5.42503 -11.4583 16.8309
4 6.10302 -16.844 11.6258
4 5.86831 -5.47958 16.7829
2 2.87735 -14.5692 8.69873
2 2.86926 -8.73069 8.6932
2 2.82882 -14.5428 14.4278
2 2.80933 -8.67879 14.4657
3 2.73557 -11.64 9.1871
3 5.78503 -14.3779 8.7483
3 2.78489 -11.5948 14.0516