2961
 Atoms. Timestep: 111016
4 -22.9131 23.3788 -17.0704
4 -22.9638 22.5148 -6.17203
4 -19.698 24.5027 5.07432
4 -22.7669 23.224 17.4848
4 -22.5163 17.8173 -23.4134
3 -20.3779 17.5459 -20.536
3 -23.2997 20.0364 -20.5845
3 -20.3404 14.3798 -23.3789
4 -22.7244 17.3402 -17.6421
4 -22.9029 17.1626 -11.3878
4 -22.8256 11.5089 -17.4342
4 -22.6969 22.9379 -11.3931
3 -23.6067 14.9329 -20.6188
3 -20.2812 17.3835 -8.89942
3 -23.5455 20.3002 -9.07437
3 -23.3883 14.4191 -14.8682
3 -20.723 17.3683 -14.1675
3 -23.6585 21.2792 -14.3592
3 -20.5964 20.2181 -17.3917
3 -19.8558 14.3437 -11.7769
4 -22.5982 16.8692 -5.38787
4 -22.7388 16.8632 0.0695902
4 -22.3455 11.3413 -5.79418
4 -23.4909 22.0504 -0.512316
3 -22.9727 14.3128 -8.94237
3 -20.1482 17.5513 3.18306
3 -23.8446 19.7563 2.30337
3 -23.2528 14.3186 -2.74188
3 -20.3171 17.2928 -2.65532
3 -24.0731 20.0792 -3.74361
3 -20.5274 19.9921 -5.78694
3 -19.8048 14.5369 0.169765
4 -22.9929 17.632 6.15646
4 -22.5236 17.513 11.6151
4 -22.8834 11.5514 5.4114
4 -22.5442 23.2591 11.4594
3 -23.3433 14.2226 2.49338
3 -20.4823 17.4781 14.6152
3 -23.4522 20.7727 14.5902
3 -23.5982 14.9438 8.78438
3 -20.2888 17.5554 8.44009
3 -23.1438 20.3796 9.16148
3 -21.1022 21.2965 5.80125
3 -20.4913 14.4487 11.7988
4 -22.5867 17.0496 17.4247
4 -23.2779 17.29 21.9561
4 -22.7781 11.7161 17.343
3 -23.6137 14.5555 14.6429
3 -23.5772 14.4791 19.919
3 -20.1915 17.5298 20.2055
3 -23.6066 20.1708 19.8101
3 -20.6599 20.2509 17.3058
3 -20.884 14.5073 23.6833
4 -17.1811 23.195 -22.5303
3 -14.4792 23.8828 -20.0323
3 -14.0666 20.4245 -23.0509
3 -19.9536 20.5203 -23.3542
4 -17.7195 22.7661 -17.0008
4 -17.5071 22.773 -11.753
1 -17.3513 17.466 -17.7798
2 -20.3387 20.5603 -20.4024
2 -20.8617 20.2749 -14.4498
3 -20.0645 23.4611 -20.0936
3 -17.4406 20.1918 -20.2225
3 -14.9353 23.618 -9.0442
3 -20.4168 23.293 -14.4509
3 -17.7525 19.8547 -14.7695
3 -15.2066 23.3431 -14.4269
3 -14.7677 20.4589 -11.5749
3 -20.2657 20.5515 -11.4858
4 -17.8274 22.5099 -5.72419
4 -18.1793 22.8417 -0.232935
1 -17.5564 17.6078 -5.67334
2 -20.1531 20.4242 -8.6032
2 -20.893 20.1136 -2.80861
3 -20.1445 23.5213 -8.87928
3 -17.3834 20.1771 -8.47452
3 -15.1029 23.4698 2.71177
3 -20.9938 22.9895 -2.95484
3 -17.7138 19.9727 -2.701
3 -15.4154 23.6167 -2.78381
3 -14.7146 20.2787 0.258823
3 -20.5536 19.9266 0.187207
4 -16.8525 23.1106 6.22453
4 -17.1965 22.6012 11.2741
1 -17.4953 17.2663 5.89756
2 -21.001 20.6128 2.99216
2 -20.4034 20.77 8.59258
3 -21.4555 23.4676 2.02909
3 -17.9202 21.0773 3.3065
3 -14.8626 23.5321 14.1827
3 -19.6537 23.5401 8.6859
3 -17.2565 20.0839 8.4928
3 -14.2679 23.1643 8.93404
3 -14.4474 19.8573 11.6561
3 -20.1436 20.4588 11.3687
4 -17.6118 23.0429 17.1132
4 -17.7333 22.5076 22.9783
1 -17.2982 17.9718 17.0683
2 -20.622 20.4659 14.4702
2 -20.4137 20.3132 20.2262
3 -20.2715 23.6441 14.7114
3 -17.6515 20.5104 14.261
3 -20.1215 23.5209 20.0842
3 -17.4677 20.2868 20.0964
3 -15.314 23.8551 20.4586
3 -14.6714 20.6233 23.2774
3 -20.4521 19.8105 23.1187
4 -11.691 22.918 -17.0848
4 -11.9279 23.37 -5.29069
4 -11.5985 23.0206 6.16027
4 -11.5282 23.1972 17.4749
4 -23.4929 5.84465 -22.5346
4 -22.7007 11.4849 -22.753
3 -20.5649 5.72602 -20.515
3 -23.5871 8.82435 -20.274
3 -20.9182 2.97149 -23.4547
4 -22.5187 5.72009 -17.3142
4 -23.0302 5.7702 -11.5159
4 -22.6092 0.12158 -17.1946
4 -22.9986 11.5126 -11.5769
3 -23.5542 2.9941 -20.0707
3 -20.3447 5.96183 -9.12795
3 -23.3121 8.89889 -8.52774
3 -23.4663 2.55043 -14.3364
3 -20.3971 5.88145 -14.5044
3 -23.3481 8.66347 -14.8924
3 -20.418 8.57846 -17.5731
3 -20.1898 2.93015 -11.5899
4 -22.9714 5.68092 -5.8786
4 -23.0208 6.04546 0.634851
4 -23.1465 -0.123882 -5.71378
4 -22.4634 11.7196 0.00733914
3 -23.5981 2.77722 -8.66956
3 -20.4109 5.87027 3.41548
3 -23.2642 8.64555 3.13769
3 -23.6828 2.30014 -2.97779
3 -21.2785 5.86791 -2.6123
3 -23.4114 9.38715 -2.90824
3 -20.0715 8.32552 -5.82617
3 -20.3624 3.27337 0.233796
4 -23.0005 5.85167 6.17869
4 -23.0225 5.75156 11.8135
4 -23.2963 -0.283027 6.32472
4 -23.2922 11.4104 12.0362
3 -23.6621 2.92275 2.889
3 -20.6774 5.70619 14.5253
3 -23.5533 9.08493 15.1974
3 -23.4722 2.93349 9.28715
3 -20.5102 5.81339 8.99776
3 -23.4914 8.54646 8.35802
3 -20.2656 8.763 6.06339
3 -20.213 2.80769 11.9259
4 -22.7644 6.05146 17.7737
4 -23.1203 6.01653 22.8831
4 -22.4534 0.0902176 17.9031
4 -23.2215 11.5375 22.598
3 -23.3431 3.10504 15.3451
3 -23.3874 2.92051 20.5715
3 -20.219 5.7616 20.8572
3 -23.5297 8.65804 20.2476
3 -20.0856 8.74624 17.8572
3 -21.0085 2.97636 23.857
4 -17.4383 11.7059 -22.8336
4 -17.1543 17.2393 -22.5648
3 -14.5114 11.6051 -20.1177
3 -17.4948 14.4903 -20.2836
3 -14.7086 9.11045 -23.7189
3 -20.6957 8.40511 -23.5918
1 -17.6913 11.7668 -17.5178
1 -17.219 11.4144 -11.4578
1 -17.2047 5.65574 -17.7309
1 -17.4967 17.386 -11.9586
2 -20.5458 8.63482 -20.4934
2 -20.6329 14.6973 -20.4189
2 -20.4573 8.84754 -14.607
2 -20.4364 14.5134 -14.7619
3 -20.01 11.5197 -20.2947
3 -17.5012 8.77252 -20.3576
3 -14.6612 11.7082 -8.7824
3 -17.2497 14.9973 -8.54713
3 -20.4253 11.6494 -14.4968
3 -17.5026 8.60102 -14.8126
3 -14.9162 11.6084 -14.8808
3 -17.629 14.8016 -15.1441
3 -20.5062 14.5034 -17.5683
3 -14.5471 14.6543 -17.4751
3 -14.4581 8.65889 -11.8155
3 -20.5232 8.79792 -11.8207
1 -17.16 11.4842 -5.59823
1 -17.4876 11.6592 0.362182
1 -17.2078 5.65129 -5.98398
1 -17.5865 17.6172 0.193003
2 -20.1837 8.76506 -8.60563
2 -20.0103 14.3663 -8.81327
2 -20.4053 8.71039 -2.99985
2 -20.2574 14.375 -2.85688
3 -19.5722 11.5428 -8.7702
3 -17.2447 8.25046 -8.96206
3 -14.3783 11.6169 2.38931
3 -17.3835 14.3448 3.39998
3 -19.7464 11.5583 -2.87624
3 -17.4836 8.13565 -2.51975
3 -14.8869 11.5022 -2.49654
3 -17.3452 14.6962 -3.31025
3 -20.199 14.2517 -5.83797
3 -13.848 14.4958 -6.01804
3 -14.3287 8.02567 0.133973
3 -20.2919 8.72914 0.0788633
1 -17.5937 11.8211 5.99186
1 -17.9962 11.5512 11.6352
1 -17.7454 5.98018 6.38158
1 -17.8259 17.7964 11.4711
2 -20.3113 8.74635 3.0631
2 -20.38 14.6517 3.10453
2 -20.532 8.64524 8.89671
2 -20.6092 14.5848 8.84705
3 -20.3661 11.7707 2.89735
3 -17.3108 8.9683 2.9913
3 -14.999 11.9709 14.318
3 -17.4743 14.7599 14.8131
3 -20.7937 11.6984 8.6733
3 -17.5848 8.6756 9.27123
3 -14.6781 11.6893 9.89073
3 -17.6604 14.4433 8.77015
3 -20.6805 14.3759 5.98269
3 -14.3919 14.1863 5.96739
3 -14.4688 8.09988 11.6986
3 -20.5711 8.75492 11.8707
1 -17.5035 11.5312 17.7967
4 -17.6254 11.4969 22.9689
1 -17.3503 5.76787 18.0183
4 -17.3364 17.5386 22.8672
2 -20.3842 8.59027 14.8852
2 -20.4504 14.4399 14.6382
2 -20.5155 8.63789 20.6972
2 -20.4845 14.6778 20.6821
3 -20.1801 11.4944 14.7268
3 -17.3523 8.59103 14.8786
3 -20.2464 11.6416 20.484
3 -17.4304 8.64695 20.5772
3 -14.5915 11.8402 20.582
3 -17.5094 14.5376 20.9155
3 -20.3584 14.292 17.5772
3 -14.2871 14.4059 17.5015
3 -14.6454 9.0908 23.5411
3 -20.8632 8.85608 23.8316
4 -11.6968 17.5293 -22.8748
4 -11.5915 22.9138 -22.253
3 -8.40188 17.3909 -20.497
3 -11.7588 20.002 -19.9823
3 -9.1299 14.0964 -23.3673
3 -14.3953 14.6843 -23.6199
1 -11.7133 17.3042 -17.0493
1 -11.8518 17.7768 -11.6476
1 -12.0442 11.9482 -17.222
4 -12.0134 22.8993 -11.7716
2 -14.5002 14.4574 -20.6499
2 -14.51 20.4495 -20.1242
2 -14.6789 14.5386 -14.6269
2 -15.019 20.4372 -14.383
3 -14.6774 17.3557 -20.016
3 -11.764 14.8781 -20.1617
3 -9.0061 17.8138 -8.41536
3 -11.8302 20.9162 -8.30621
3 -14.7177 17.4851 -14.1634
3 -11.6629 14.3364 -14.5741
3 -9.26896 17.5114 -14.2813
3 -11.9405 20.3816 -14.6405
3 -14.7428 20.4696 -17.2556
3 -8.86927 19.9998 -17.4384
3 -7.97442 14.5113 -11.4763
3 -14.8608 14.2683 -11.8023
1 -11.592 17.7262 -5.67186
1 -11.7496 17.7689 0.0444131
1 -11.7164 11.5186 -6.1053
4 -11.8644 22.9667 0.542597
2 -14.4235 14.6473 -9.01054
2 -14.5533 20.4003 -8.61558
2 -14.3558 14.4275 -2.80756
2 -14.5309 20.3934 -2.6619
3 -14.1682 17.5007 -8.55746
3 -11.4867 14.6263 -9.49964
3 -8.91949 17.4892 2.68959
3 -11.9491 20.2888 3.03147
3 -14.179 17.5315 -2.8714
3 -11.5393 14.5081 -2.21643
3 -9.09005 17.8725 -2.7391
3 -11.766 20.8391 -2.42788
3 -14.7517 20.2217 -5.54175
3 -8.91537 20.7814 -5.5676
3 -7.99659 14.6581 0.115328
3 -14.7745 15.0686 -0.0368766
1 -11.5352 17.3255 5.73113
1 -11.4146 17.3163 12.1392
1 -11.2612 11.2886 5.58306
4 -11.7115 22.7725 11.4413
2 -14.513 14.49 2.98175
2 -14.9521 20.6056 3.15461
2 -14.7186 14.5054 8.79124
2 -14.4544 20.2535 8.7608
3 -15.1214 17.5811 3.13369
3 -11.4886 14.1094 2.48454
3 -9.12404 17.4816 14.9131
3 -11.6267 20.3548 14.8373
3 -14.7131 17.2951 8.04872
3 -11.4918 14.3701 8.93608
3 -8.54567 17.2873 8.77077
3 -11.559 20.0989 8.93332
3 -14.3907 20.414 5.95621
3 -8.9836 19.9325 5.8474
3 -8.3697 14.2663 11.5582
3 -14.891 15.2676 11.5769
1 -11.5227 17.5341 17.6995
4 -11.8301 17.9932 22.8622
1 -11.1849 11.7989 17.6624
4 -12.1447 23.4465 22.4705
2 -14.5723 14.6296 14.5437
2 -14.4294 20.5902 14.5404
2 -14.608 14.8935 20.3574
2 -14.6258 20.7507 20.2526
3 -14.309 17.6689 15.0277
3 -11.4751 14.5242 14.5105
3 -14.6763 17.8824 20.2878
3 -11.6061 14.7655 20.2556
3 -8.64503 17.6946 20.9876
3 -11.7941 20.6899 20.2209
3 -14.5356 21.1242 17.3743
3 -8.51315 20.5643 17.7579
3 -8.8282 14.5679 23.5875
3 -14.1719 15.3331 23.389
4 -5.97568 23.0944 -22.9562
3 -3.33963 23.2239 -20.5373
3 -2.72188 20.3671 -23.6149
3 -9.12895 20.3314 -23.489
4 -5.92275 22.3359 -17.4014
4 -5.89886 22.7973 -11.8208
1 -5.83145 17.3339 -17.617
2 -8.90536 20.1527 -20.5871
2 -8.95804 20.7117 -14.5354
3 -8.73348 23.0742 -20.1776
3 -5.72563 20.235 -20.7
3 -2.86422 23.3311 -8.50852
3 -8.86783 23.5445 -14.7816
3 -5.7903 19.911 -14.4583
3 -2.96067 23.1174 -14.6368
3 -2.93953 20.3525 -11.6615
3 -8.84235 20.6436 -11.5507
4 -5.6189 22.9848 -5.68192
4 -5.91163 23.1338 0.24332
1 -6.09714 18.0583 -5.65057
2 -8.73632 21.0728 -8.50598
2 -8.76526 21.0484 -2.73987
3 -8.27458 23.9683 -8.19271
3 -5.8011 20.2521 -8.63425
3 -2.69546 24.0811 3.36662
3 -8.8966 23.8022 -2.22232
3 -5.70669 20.5657 -2.74097
3 -3.00797 23.738 -2.65238
3 -3.05702 20.6968 0.199727
3 -8.71911 20.8517 0.22715
4 -5.59228 22.9877 5.91937
4 -5.78601 22.9221 11.3105
1 -5.70094 17.5868 6.05862
2 -9.03389 20.5053 3.03374
2 -8.6573 20.1616 8.79678
3 -9.00891 23.5075 3.30908
3 -5.95329 20.624 3.36908
3 -3.28306 23.2803 14.1281
3 -8.79282 23.1287 8.25006
3 -5.75577 20.1959 8.81304
3 -2.94573 23.4038 9.06868
3 -3.25341 19.8478 11.8716
3 -8.99685 20.3333 11.7848
4 -6.09205 23.3648 16.9
4 -6.07786 23.384 22.816
1 -5.62353 17.5339 17.3902
2 -8.70541 20.3998 14.8267
2 -8.79166 20.6062 20.6337
3 -8.93453 23.4608 14.4548
3 -5.87716 20.0453 14.8011
3 -8.72159 23.9304 20.547
3 -5.80951 20.5021 20.7511
3 -2.24796 23.553 21.6987
3 -2.50297 19.8637 23.4966
3 -9.35042 21.1346 23.5849
4 -0.45006 22.4981 -17.3217
4 -0.0094112 23.1371 -5.81257
4 0.170645 22.8057 6.062
4 0.239654 22.9344 17.6964
4 -22.8164 -5.54722 -22.8829
4 -22.9659 0.060853 -22.0338
3 -20.1612 -5.93586 -20.238
3 -23.3563 -3.06883 -20.2309
3 -20.5271 -8.27752 -23.6491
4 -22.9296 -6.07388 -17.7018
4 -23.4954 -5.23946 -11.9342
4 -22.7466 -11.8908 -17.6575
4 -22.5654 0.0415408 -11.8271
3 -23.4562 -9.08586 -20.7076
3 -20.8848 -5.65249 -8.64128
3 -23.5938 -2.59927 -9.15091
3 -23.5688 -8.96507 -15.1903
3 -20.4585 -5.90021 -14.7611
3 -23.482 -2.51351 -14.4509
3 -20.5096 -2.85434 -17.6143
3 -20.6969 -8.5941 -11.7092
4 -23.1027 -5.5828 -5.57931
4 -22.7789 -5.39538 -0.0772322
4 -22.5768 -11.5922 -5.81698
4 -22.8887 0.694484 0.110952
3 -23.7892 -8.58468 -8.33737
3 -20.3334 -5.84198 3.11997
3 -23.7561 -3.4937 3.15998
3 -23.3564 -8.79216 -3.30343
3 -20.5379 -5.71469 -2.93791
3 -23.6439 -2.9113 -2.95816
3 -20.7041 -2.78573 -5.95154
3 -20.7194 -8.30777 -0.216895
4 -22.8492 -6.00051 6.04078
4 -23.0782 -5.85295 11.455
4 -22.7498 -12.2159 5.67131
4 -22.6489 -0.00254741 11.6684
3 -23.748 -8.81398 3.0645
3 -20.7319 -5.87547 14.408
3 -23.1904 -2.99062 14.5683
3 -23.5245 -8.82629 8.85141
3 -20.1153 -6.00013 8.75874
3 -23.2629 -2.91085 9.18276
3 -20.5549 -3.19358 5.9703
3 -20.2941 -9.0106 11.5827
4 -23.1061 -6.17011 17.5461
4 -22.7259 -6.07354 22.6982
4 -23.1023 -11.6982 17.6761
4 -23.5513 -0.156304 22.304
3 -24.1259 -8.90217 15.1158
3 -23.4262 -8.81939 20.4944
3 -20.213 -5.85447 20.3587
3 -23.4686 -3.19989 20.0908
3 -19.9926 -2.711 17.5869
3 -20.1552 -8.8827 23.2127
4 -17.4097 0.058414 -22.9574
4 -17.2775 6.1225 -23.0649
3 -14.6347 0.103594 -20.7472
3 -17.4019 2.90967 -20.1903
3 -14.7603 -2.92909 -23.701
3 -20.3734 -2.79029 -23.3716
1 -17.1955 0.12501 -17.4935
1 -17.6034 -0.22583 -11.8054
1 -17.7831 -6.22923 -17.3044
1 -17.574 5.92748 -11.8357
2 -20.4779 -2.86852 -20.472
2 -20.2353 2.87345 -20.4717
2 -20.6161 -2.94939 -14.6948
2 -20.4654 3.03259 -14.5112
3 -19.9145 0.0325588 -20.1061
3 -17.4535 -3.14126 -20.4379
3 -14.7486 -0.00351018 -9.23806
3 -17.4968 2.87595 -8.86658
3 -19.9494 0.06793 -14.5209
3 -17.4982 -3.57208 -14.7759
3 -14.9815 -0.115884 -14.8777
3 -17.5068 3.07587 -14.6162
3 -20.2766 3.17034 -17.5344
3 -13.9949 2.75352 -17.7467
3 -14.8837 -3.10589 -11.933
3 -20.3007 -2.95464 -11.8715
1 -17.6318 0.11533 -5.90925
1 -17.4694 0.229585 0.473207
1 -17.8961 -5.71953 -5.90718
1 -17.4937 5.98043 0.577503
2 -20.6295 -2.89296 -8.97616
2 -20.4364 3.08313 -8.63689
2 -20.6362 -2.54989 -2.97423
2 -20.5011 3.03501 -2.65932
3 -20.5401 0.152993 -8.71444
3 -17.5577 -3.22431 -8.81049
3 -14.4553 -0.0479334 2.89964
3 -17.5549 3.01146 3.34468
3 -19.9979 0.262742 -2.73585
3 -17.8096 -3.03605 -3.38772
3 -15.4258 0.105146 -2.56016
3 -17.5964 3.98892 -2.67862
3 -20.1949 3.09207 -5.67865
3 -14.826 2.42212 -5.73176
3 -14.3134 -2.87239 0.0821748
3 -20.1371 -2.67969 -0.0736278
1 -17.6671 0.192433 5.71144
1 -17.6399 0.0383081 11.693
1 -17.5414 -6.14512 5.94744
1 -17.7133 5.75041 11.9992
2 -20.7278 -2.93653 2.951
2 -20.4929 2.94219 3.22941
2 -20.3039 -3.13697 8.83
2 -20.5013 2.92344 8.87701
3 -20.15 -0.0688436 3.039
3 -17.5564 -2.81175 3.05058
3 -14.6881 -0.179712 15.0909
3 -17.5641 3.14167 15.0885
3 -20.3435 -0.125642 8.70925
3 -17.4099 -2.5309 8.9192
3 -14.5776 0.0734041 9.43854
3 -17.6152 3.11936 8.65235
3 -20.6725 2.73299 5.99875
3 -13.8912 2.68993 6.04348
3 -14.3235 -2.98862 11.7842
3 -19.9668 -2.91384 11.7473
1 -17.38 0.0352555 17.6679
4 -17.4151 -0.396052 23.4313
1 -17.4735 -6.38763 17.5427
4 -16.9097 5.98064 22.9395
2 -20.2862 -3.07743 14.787
2 -20.5075 2.84819 14.9642
2 -20.4123 -2.88509 20.5836
2 -20.2852 2.93829 20.9427
3 -19.9833 -0.0315741 14.7093
3 -17.3137 -2.92017 14.3752
3 -20.321 -0.0485249 20.9758
3 -17.4132 -2.5888 20.4699
3 -14.338 -0.00974283 21.097
3 -17.4002 2.71781 20.9184
3 -19.8628 2.78681 17.991
3 -14.517 2.88592 17.769
3 -14.6286 -3.3617 23.6916
3 -20.0706 -3.21279 23.5886
4 -11.0772 6.02864 -23.0656
4 -12.017 11.8548 -22.8208
3 -8.54196 5.71417 -20.3886
3 -11.6362 8.65314 -20.3102
3 -8.66671 2.93756 -23.4202
3 -14.7605 3.23697 -24.0625
1 -11.6505 5.72673 -17.6946
1 -11.6749 5.37675 -11.5839
1 -11.761 -0.0158534 -17.6624
1 -11.3822 11.3098 -11.5883
2 -14.6733 2.96738 -21.1284
2 -14.6227 8.6602 -20.7118
2 -14.5456 2.80901 -14.5591
2 -14.4136 8.74345 -14.6814
3 -14.5549 5.91139 -20.3315
3 -11.6377 3.02786 -20.9724
3 -9.07246 5.794 -8.80202
3 -11.5577 8.94828 -8.60626
3 -14.1744 5.80693 -14.7884
3 -11.6577 2.1426 -14.3608
3 -9.6204 5.69668 -14.7104
3 -11.5678 9.26915 -14.7454
3 -14.5377 8.50026 -17.6327
3 -8.02924 8.50463 -17.634
3 -8.7272 3.03936 -11.6153
3 -14.8215 3.30024 -11.7724
1 -11.5924 5.81857 -5.99946
1 -11.8248 5.36289 0.315892
1 -11.3159 0.0146618 -5.90642
1 -11.8294 11.383 -0.104188
2 -14.4188 2.76239 -8.66607
2 -14.4316 8.74485 -8.7322
2 -14.7499 2.92723 -2.9578
2 -14.4583 8.50963 -2.86314
3 -14.445 5.63993 -8.30976
3 -11.568 2.52598 -8.72594
3 -8.90352 5.76129 2.77598
3 -11.5523 8.73264 2.91933
3 -13.8538 5.69896 -3.11465
3 -11.7696 2.42263 -3.05308
3 -8.95908 5.74077 -3.0047
3 -11.5941 9.25514 -3.25794
3 -14.679 8.94748 -5.74157
3 -8.59615 8.784 -5.72612
3 -8.73983 2.8415 0.122907
3 -14.5533 2.60889 0.105927
1 -11.3497 5.45962 6.44252
1 -11.8687 5.67507 11.7062
1 -11.6516 -0.149507 5.61672
1 -11.5703 11.822 11.5781
2 -14.6231 2.80511 3.037
2 -14.4013 8.72201 2.9799
2 -14.5711 2.87524 8.96293
2 -14.472 8.9372 8.97961
3 -14.393 5.72289 3.41714
3 -11.7141 2.67608 2.93857
3 -9.52371 5.87021 14.5717
3 -11.6069 9.43627 14.6944
3 -14.555 5.77469 8.34334
3 -11.6633 2.73617 9.44385
3 -8.44977 5.7822 9.27892
3 -11.5661 8.69698 8.74316
3 -14.3695 9.56508 6.04888
3 -8.81187 8.01205 6.11892
3 -8.65516 2.39254 11.7081
3 -14.9591 3.19989 11.8821
1 -11.7223 5.56879 17.5337
4 -11.398 5.82456 22.9215
1 -11.4938 -0.16277 17.2222
4 -11.6532 12.2152 22.9701
2 -14.8408 2.90331 14.7272
2 -14.4292 8.97642 14.7532
2 -14.2943 2.95182 20.8008
2 -14.5269 8.84356 20.6081
3 -14.2022 5.80817 14.8663
3 -11.7383 2.75952 14.4668
3 -14.37 5.91568 20.4844
3 -11.3035 3.12683 20.1198
3 -8.54231 5.82056 20.0262
3 -11.4742 8.53209 20.1578
3 -14.8517 8.78489 17.7024
3 -8.3169 8.84242 17.5827
3 -8.52756 3.36673 23.2873
3 -14.4017 2.91672 23.8648
4 -5.89522 11.7903 -23.0813
4 -5.68115 17.0017 -23.0849
3 -2.99859 11.5958 -20.6408
3 -5.91547 14.355 -20.5434
3 -2.6973 8.70122 -23.5665
3 -9.30273 9.18513 -23.7012
1 -5.71742 11.6358 -17.6412
1 -5.5226 11.4007 -11.9456
1 -5.87774 5.63295 -18.075
1 -5.66113 17.129 -11.5183
2 -8.78969 8.98541 -20.5791
2 -9.07745 14.433 -20.4892
2 -8.4836 8.57918 -14.7555
2 -8.7495 14.4951 -14.4906
3 -9.04964 11.6184 -19.647
3 -5.87982 8.93601 -20.8502
3 -3.48749 11.6064 -8.29317
3 -5.68611 14.9644 -8.06903
3 -8.52482 11.5602 -14.5692
3 -5.48946 8.24864 -14.4689
3 -3.16284 11.3095 -15.0678
3 -5.88987 14.7076 -14.7222
3 -8.78836 15.0129 -17.4847
3 -2.84423 14.272 -17.4951
3 -3.12706 8.90072 -11.5921
3 -8.31154 8.80173 -11.5518
1 -5.97203 11.6624 -5.45959
1 -6.09303 11.3486 0.234727
1 -5.37326 5.67365 -5.65365
1 -5.92051 17.8035 0.361764
2 -8.53158 8.70851 -8.61572
2 -8.59672 14.5748 -8.71978
2 -8.6727 8.91425 -2.85226
2 -8.6401 14.7378 -2.79364
3 -8.52905 11.7342 -8.67418
3 -5.59777 8.12001 -8.37376
3 -3.18225 11.7488 2.89758
3 -5.76466 15.1013 3.56412
3 -8.3307 11.8063 -2.50857
3 -5.63004 8.19944 -2.92813
3 -2.92691 11.6831 -2.76736
3 -5.73849 15.022 -3.51776
3 -9.28316 14.4935 -5.68203
3 -1.91817 14.4853 -5.6708
3 -3.27369 9.053 0.0649114
3 -8.33135 8.45599 0.11537
1 -5.48619 11.6539 5.8026
1 -5.84275 11.2106 11.9894
1 -5.71382 6.08297 6.47202
1 -5.9709 17.4176 11.6657
2 -8.74902 8.55461 3.15119
2 -8.69917 14.5063 2.8685
2 -8.71742 8.66213 8.94065
2 -8.67996 14.2139 8.54186
3 -8.36009 11.4565 3.23354
3 -5.76709 8.39688 3.28462
3 -3.61651 11.5912 15.1288
3 -5.82465 15.046 14.6475
3 -8.32276 11.4111 8.13575
3 -5.83464 8.59678 9.27569
3 -3.03661 11.6216 9.36107
3 -5.68503 14.5743 8.18527
3 -9.06825 14.3635 5.62207
3 -2.41142 14.2402 5.94955
3 -2.96905 8.42005 11.7994
3 -8.99084 9.06688 11.8367
1 -5.92027 12.0772 17.7963
4 -5.98231 11.7549 22.8594
1 -5.37299 5.99419 17.6367
4 -5.44315 17.3932 22.8025
2 -8.68744 8.67164 14.6838
2 -8.63685 14.5082 14.7036
2 -8.68012 8.75413 20.3563
2 -8.83931 14.6701 20.762
3 -8.03441 11.6889 14.8967
3 -5.78198 8.15014 14.4439
3 -8.80278 11.7771 20.4629
3 -5.71045 8.81369 20.4716
3 -2.98925 11.6981 20.3595
3 -5.77865 14.6805 20.3455
3 -8.42027 14.7802 17.6548
3 -2.83841 14.4135 17.4733
3 -3.25354 8.45156 23.6956
3 -8.86657 9.16388 23.3568
4 -0.0365754 17.3683 -22.9192
4 -0.01567 22.6857 -23.224
3 2.47854 17.2496 -20.2266
3 -0.111028 20.3667 -20.5103
3 2.59119 14.4828 -23.6378
3 -2.81772 14.4973 -23.6014
1 -0.26258 16.8611 -17.5821
1 0.121538 17.7431 -11.7666
1 0.077513 11.5289 -17.5411
4 0.043547 22.6752 -12.1169
2 -3.0696 14.3486 -20.4707
2 -2.9422 20.2576 -20.5124
2 -3.11445 14.1878 -14.3414
2 -2.8897 20.1009 -14.5549
3 -2.74545 17.322 -20.5717
3 -0.168151 14.481 -20.2419
3 2.33941 17.6538 -8.66942
3 -0.02705 20.4037 -8.98877
3 -2.73046 17.0409 -14.4957
3 -0.0762445 14.0908 -14.3846
3 3.14156 17.3574 -14.8952
3 0.0743799 19.6955 -14.8704
3 -2.88395 19.8981 -17.5689
3 2.66738 20.3974 -17.7894
3 3.16219 14.4484 -11.7844
3 -3.37836 14.4323 -11.3704
1 -0.169179 17.8862 -5.71641
1 -0.052813 17.8503 0.010704
1 0.159103 11.5081 -6.1783
4 -0.165379 23.297 0.503021
2 -2.91566 14.5356 -8.46838
2 -2.8122 20.4482 -8.71028
2 -2.79835 14.6893 -2.91273
2 -2.82388 20.7294 -2.55881
3 -2.5818 17.4597 -8.5856
3 0.00295689 14.1926 -9.32458
3 2.58028 17.5324 3.1879
3 -0.189237 20.6055 3.21389
3 -2.66195 17.7052 -2.60057
3 -0.0746445 14.7299 -2.27196
3 2.81963 17.692 -2.93592
3 -0.0471878 20.8643 -2.54668
3 -2.87898 20.6857 -5.69893
3 2.72382 20.5473 -6.11636
3 3.1719 14.8926 -0.0872222
3 -3.64731 14.2266 0.0939052
1 -0.449864 17.7043 5.51802
1 0.139448 17.4802 11.1133
1 -0.116583 11.5576 5.94377
4 -0.132731 22.9637 11.3626
2 -2.95997 14.5005 2.84105
2 -3.02951 20.9484 3.12264
2 -2.74171 14.4686 8.81403
2 -2.99955 20.4539 9.01993
3 -3.01688 17.7145 2.85316
3 0.024653 14.8773 2.36992
3 2.18619 17.3597 14.3753
3 0.147009 20.8543 14.505
3 -2.59231 17.3648 8.61792
3 0.271974 14.2509 9.25144
3 3.47401 17.7233 8.70643
3 0.159478 20.337 8.82678
3 -2.8316 20.4241 6.01955
3 3.06408 20.6815 5.91846
3 3.58795 14.5591 11.6112
3 -3.24402 14.8469 11.7197
1 0.322139 17.3087 17.6427
4 0.538499 17.5565 22.8416
1 -0.154105 11.6604 17.7416
4 0.491656 21.9905 23.2609
2 -2.85906 14.7075 14.6118
2 -2.91216 20.474 14.6787
2 -2.84761 14.7899 20.3834
2 -2.91676 20.8942 20.5937
3 -2.56864 17.5879 15.1043
3 -0.147984 13.5263 14.3004
3 -2.72505 17.5783 20.1548
3 -0.00328411 14.7108 20.3465
3 3.20494 17.3946 20.4111
3 0.138242 20.1269 20.2926
3 -2.97155 21.2039 17.6858
3 3.03787 20.0358 17.467
3 2.76781 14.6858 23.5572
3 -2.84387 14.5762 23.3388
4 5.60483 22.1192 -23.3668
3 8.34232 23.3572 -21.1942
3 8.73564 19.9987 -23.424
3 2.74116 20.0007 -23.6484
4 5.35709 22.9629 -18.0141
4 5.86287 22.5388 -11.6448
1 5.56402 17.3074 -17.4916
2 2.76603 20.1885 -20.706
2 2.94245 20.3426 -14.8682
3 2.7156 23.1134 -20.8073
3 5.52964 19.9195 -20.5045
3 8.53524 23.3222 -9.14508
3 2.49105 23.3383 -14.9115
3 5.87265 20.5269 -14.7809
3 8.88847 23.6736 -14.4343
3 8.47011 20.0195 -11.8118
3 3.03787 20.2108 -11.9985
4 5.63271 22.7201 -6.14605
4 5.7832 22.9744 -0.0382349
1 5.58642 17.5841 -6.02398
2 2.92423 20.6439 -9.15041
2 2.81087 20.6547 -3.06095
3 2.79735 23.5054 -9.73038
3 5.77951 20.1983 -8.86933
3 8.71752 23.4912 2.30243
3 2.96072 23.8742 -3.54904
3 5.75466 20.5089 -3.1702
3 8.86516 23.7052 -3.23988
3 8.74986 20.378 -0.111811
3 3.02394 20.5035 0.0104324
4 5.97902 23.2419 5.96149
4 6.47368 22.3948 11.9444
1 6.04298 17.5926 5.86057
2 2.83876 20.6078 3.04834
2 2.94259 20.7588 8.78638
3 2.50277 23.5253 2.94487
3 5.75391 20.6816 3.04939
3 8.62855 23.301 14.8316
3 2.50009 23.7302 8.85619
3 5.9205 20.7929 8.58278
3 8.79728 23.5317 9.38913
3 8.95338 19.8357 11.7347
3 3.21807 20.0213 11.6171
4 6.00311 22.577 17.3416
4 6.31171 22.8181 23.1641
1 5.86417 17.2345 17.8421
2 3.08927 20.1493 14.5713
2 3.08506 20.3743 20.3173
3 3.7544 23.1868 14.4639
3 5.83965 19.4683 14.5945
3 3.17271 23.4123 20.4163
3 5.86407 20.3793 20.1977
3 8.73148 23.501 20.4982
3 9.00326 20.468 23.4271
3 3.48268 20.1073 23.5283
4 11.8091 23.3118 -17.336
4 11.5539 22.9146 -5.9549
4 11.6278 23.0242 5.67493
4 11.5898 23.2922 17.5376
4 -22.6415 -17.2606 -23.173
4 -22.3673 -11.9475 -23.7523
3 -19.918 -17.5295 -20.3107
3 -23.2529 -14.8383 -20.5507
3 -19.9689 -20.1061 -23.8586
4 -22.5946 -17.1884 -17.908
4 -23.2838 -17.7076 -11.2132
4 -22.9411 -22.7473 -17.7124
4 -22.9101 -11.5098 -11.5832
3 -23.3261 -20.1495 -20.6192
3 -20.812 -17.5714 -8.71203
3 -23.7053 -14.5502 -8.63382
3 -23.624 -20.9275 -14.7332
3 -20.7936 -17.507 -14.5905
3 -23.5788 -14.186 -14.5476
3 -20.0539 -14.6078 -17.6203
3 -20.6282 -20.4854 -11.6659
4 -23.3856 -17.6511 -5.6418
4 -23.0503 -17.3273 0.589908
4 -23.0465 -23.0128 -5.67387
4 -22.684 -11.278 -0.520506
3 -23.8364 -20.822 -8.95194
3 -20.2765 -17.7439 3.05028
3 -23.5947 -14.7375 3.45674
3 -23.7749 -20.5073 -3.15586
3 -21.1322 -17.4408 -2.77716
3 -23.5175 -14.0325 -3.21527
3 -20.3688 -14.6417 -5.73109
3 -20.7266 -20.4757 -0.178828
4 -22.4954 -17.4321 6.04195
4 -22.925 -17.384 11.6857
4 -23.249 -22.7195 5.83527
4 -22.8795 -12.0112 11.4572
3 -23.5612 -20.3007 2.65136
3 -20.855 -17.4023 14.8655
3 -23.6192 -14.314 14.3283
3 -23.7755 -19.9412 8.42632
3 -20.4128 -17.7865 8.89445
3 -23.3388 -15.0811 8.97616
3 -20.0827 -14.671 5.88648
3 -20.6126 -20.1805 12.0437
4 -23.0613 -17.4141 17.7968
4 -22.771 -17.481 23.1946
4 -23.5567 -22.5494 17.9938
4 -22.6818 -11.541 22.8425
3 -23.8531 -19.8076 15.1532
3 -23.5281 -20.1917 20.6866
3 -20.4451 -17.6189 20.4867
3 -23.4388 -14.3825 20.2316
3 -20.5112 -14.4875 17.5436
3 -19.9498 -20.1255 24.1654
4 -17.0601 -11.9683 -22.7909
4 -17.4074 -5.96813 -23.1126
3 -14.4464 -11.763 -20.1903
3 -17.4252 -8.71168 -20.2427
3 -14.2519 -14.5155 -23.3657
3 -19.9245 -14.7495 -23.6962
1 -17.4808 -11.6065 -17.338
1 -17.6502 -11.879 -11.6819
1 -17.2189 -17.2756 -17.6583
1 -17.5534 -6.05584 -11.4568
2 -20.3419 -14.62 -20.5119
2 -20.2691 -8.87336 -20.5808
2 -20.4622 -14.662 -14.504
2 -20.6875 -8.89913 -14.6506
3 -20.2037 -11.7238 -20.7109
3 -17.4396 -14.7116 -20.5378
3 -15.0362 -11.8055 -8.95769
3 -17.7492 -8.79496 -9.31763
3 -20.0767 -11.8103 -14.6614
3 -17.526 -15.0598 -14.4099
3 -15.2303 -11.8268 -14.3414
3 -17.6457 -8.69881 -14.2116
3 -20.2843 -9.10251 -17.5112
3 -14.8074 -8.59104 -17.5252
3 -14.5762 -14.8403 -11.6859
3 -20.4827 -14.7258 -11.6546
1 -17.878 -11.7499 -6.16645
1 -17.7431 -10.9834 0.254785
1 -17.6941 -17.4137 -5.84371
1 -18.0081 -5.70188 0.36248
2 -20.6937 -14.6195 -8.68011
2 -20.6575 -8.74282 -8.8213
2 -20.5233 -14.607 -2.79122
2 -20.4198 -8.70367 -3.06969
3 -20.4622 -11.7057 -8.83509
3 -17.7656 -14.8503 -8.5386
3 -15.2536 -11.5272 2.76602
3 -17.7066 -8.45784 2.97397
3 -20.0891 -11.7007 -3.05003
3 -17.5897 -14.8714 -2.76592
3 -15.314 -11.5674 -2.85737
3 -17.7075 -7.99929 -2.42764
3 -20.0516 -8.888 -5.88082
3 -15.3947 -8.75696 -5.8385
3 -13.8945 -14.5973 -0.0592891
3 -20.7926 -14.6039 0.0804662
1 -17.4671 -11.6079 5.90821
1 -17.2517 -11.8209 11.8217
1 -17.9045 -17.8656 5.89857
1 -17.2235 -5.69317 11.618
2 -20.2498 -14.589 3.00683
2 -20.6048 -8.70004 2.7567
2 -20.5048 -14.6475 8.95426
2 -20.4447 -8.86048 8.89484
3 -20.2151 -11.5448 3.09105
3 -17.6067 -14.7124 2.19169
3 -14.4 -11.7008 14.166
3 -17.7655 -9.22073 14.9822
3 -20.2863 -11.7316 8.6925
3 -17.5984 -14.5873 9.171
3 -14.5988 -11.7948 8.61117
3 -17.5328 -8.94625 8.68441
3 -20.3658 -8.81228 5.80037
3 -14.251 -8.63249 5.77102
3 -14.3607 -14.6618 11.6343
3 -20.2713 -14.7465 11.7035
1 -17.3726 -11.8608 17.6109
4 -17.3049 -11.7697 22.4554
1 -17.5436 -17.3818 17.6622
4 -17.3834 -6.00918 23.0194
2 -20.7979 -14.4894 14.6204
2 -21.0768 -8.81324 14.4278
2 -20.5179 -14.7035 20.3673
2 -20.2106 -8.74196 20.1743
3 -20.9575 -11.5382 14.3162
3 -17.7805 -14.5157 14.6842
3 -20.2572 -11.6355 20.006
3 -17.5848 -14.6775 20.2007
3 -14.2838 -11.6458 20.0436
3 -17.3671 -8.98675 20.0471
3 -20.7054 -8.70482 17.4236
3 -14.5171 -8.91004 17.48
3 -14.5233 -14.6849 23.2085
3 -20.3091 -14.645 23.2998
4 -11.8363 -5.91618 -23.1857
4 -11.6702 -0.25652 -23.0156
3 -8.80015 -5.79205 -20.3356
3 -11.5926 -2.96105 -20.4207
3 -8.68216 -8.49388 -23.6981
3 -14.9291 -9.08548 -23.6363
1 -11.7717 -5.72547 -17.6054
1 -11.8036 -5.86605 -11.6052
1 -11.5078 -11.7268 -17.8301
1 -11.5444 -0.403591 -11.6767
2 -14.7299 -8.90343 -20.3827
2 -14.5066 -3.04519 -20.792
2 -14.678 -8.98065 -14.5664
2 -14.4837 -3.17702 -14.8467
3 -14.4956 -5.99406 -20.5837
3 -11.761 -8.79951 -20.725
3 -9.54794 -5.94873 -8.6069
3 -11.6015 -2.73799 -8.73381
3 -14.0325 -6.16803 -14.4737
3 -11.6781 -9.45149 -14.9679
3 -9.51395 -6.00981 -14.5015
3 -11.6712 -2.50237 -14.995
3 -14.3881 -2.83925 -17.7834
3 -8.57486 -2.35768 -17.5032
3 -9.56676 -8.80619 -11.7549
3 -14.2715 -8.69916 -11.6447
1 -11.7739 -5.91574 -5.66397
1 -11.5528 -5.45276 -0.274249
1 -12.3897 -11.8202 -5.66219
1 -11.5312 0.2134 -0.198392
2 -14.5548 -8.78144 -8.73564
2 -14.6687 -3.06074 -8.76119
2 -14.9655 -8.46918 -2.7991
2 -14.8093 -2.75152 -2.81931
3 -14.1724 -5.87065 -8.87343
3 -11.7621 -9.60524 -8.58119
3 -9.23271 -5.99748 2.94049
3 -11.5485 -2.82857 3.06286
3 -14.1727 -5.66971 -2.71886
3 -12.0117 -8.83031 -3.16756
3 -9.05364 -5.81107 -3.09241
3 -11.5552 -2.53277 -3.00386
3 -14.8051 -3.20137 -5.8948
3 -8.37748 -3.0331 -5.98713
3 -9.04735 -8.84307 0.0819064
3 -14.4023 -8.66548 0.0608952
1 -12.0796 -5.59469 5.64829
1 -11.6209 -5.45105 11.6157
1 -11.6428 -11.3462 6.21171
1 -11.9865 -0.0162986 12.0225
2 -14.6258 -8.69083 2.9109
2 -14.4646 -2.79987 3.03553
2 -14.5405 -8.82117 8.79911
2 -14.4714 -2.89938 8.95606
3 -14.8475 -5.68045 2.99845
3 -11.8518 -9.4919 2.77405
3 -8.5321 -5.67398 14.2362
3 -11.649 -2.98588 14.8738
3 -14.7569 -5.76357 8.73362
3 -11.789 -8.52866 9.27661
3 -8.74419 -5.76298 9.00416
3 -11.7771 -3.11764 8.2619
3 -14.7507 -2.81853 5.91322
3 -8.34155 -2.91163 5.93197
3 -8.33492 -8.68908 11.7513
3 -14.9723 -8.65751 11.7293
1 -11.777 -5.75938 17.7364
4 -11.37 -5.99488 22.7832
1 -11.899 -11.808 17.2708
4 -11.2606 0.325003 22.8584
2 -14.7973 -8.78018 14.5724
2 -14.442 -3.1795 14.6959
2 -14.4541 -8.83631 20.4883
2 -14.4987 -2.98959 20.6309
3 -14.8565 -5.91323 14.4677
3 -11.9435 -8.68242 14.402
3 -14.7 -5.87983 20.4703
3 -11.5494 -8.8598 20.2759
3 -8.41526 -5.93408 20.4918
3 -11.4698 -2.99423 20.1959
3 -14.4856 -2.83487 17.6982
3 -8.52284 -3.21236 17.4647
3 -8.63975 -8.84031 23.1716
3 -14.656 -8.69684 23.4143
4 -5.69086 0.142582 -23.0181
4 -5.94616 5.46893 -23.0385
3 -2.87202 -0.0244036 -20.5728
3 -5.75827 2.67587 -20.3889
3 -2.81925 -3.21361 -23.9367
3 -8.4981 -3.18408 -23.6371
1 -6.02102 0.291764 -17.3491
1 -5.74932 -0.205539 -11.3832
1 -5.48524 -5.81272 -17.575
1 -6.23026 5.99193 -11.4002
2 -8.70879 -2.92393 -20.6152
2 -8.62592 2.80884 -20.534
2 -8.87465 -2.93334 -14.6314
2 -8.81162 2.76716 -14.5701
3 -8.78917 0.0228248 -20.6392
3 -5.80418 -2.7864 -20.5494
3 -3.28224 -0.127728 -8.55585
3 -5.6858 3.06028 -8.39369
3 -8.41549 -0.0796358 -14.1514
3 -5.73766 -3.18335 -14.5894
3 -3.72446 0.135734 -14.4633
3 -5.9982 3.82165 -14.5897
3 -9.10528 2.64231 -17.4977
3 -3.17406 2.89727 -17.6449
3 -3.03299 -2.77625 -11.7788
3 -9.05277 -3.04771 -11.8583
1 -6.06221 -0.106371 -5.98862
1 -6.18239 0.132613 0.201141
1 -6.0157 -5.91449 -6.01133
1 -5.37989 5.89198 0.225582
2 -8.69777 -2.99837 -8.86339
2 -8.69278 2.84367 -8.67182