2961
 Atoms. Timestep: 1014
4 -22.7216 22.5165 -17.416
4 -23.06 22.3117 -5.78441
4 -23.06 22.3117 5.78441
4 -22.7216 22.5165 17.416
4 -22.659 17.3519 -22.7476
3 -20.1103 17.382 -20.2072
3 -23.2935 19.8974 -20.0295
3 -20.2183 14.5034 -23.3979
4 -22.4919 17.336 -17.2842
4 -22.4276 17.3585 -11.652
4 -22.6767 11.7115 -17.5388
4 -22.8288 22.3072 -11.6446
3 -23.2682 14.4229 -20.3867
3 -19.8449 17.4517 -8.7118
3 -23.2296 19.9298 -8.75202
3 -23.2277 14.7812 -14.637
3 -19.8536 17.3646 -14.5165
3 -23.1735 19.9879 -14.5426
3 -20.0252 20.1301 -17.4393
3 -20.1937 14.3882 -11.635
4 -22.6246 17.3548 -5.86503
4 -22.7984 17.3201 -1.56728e-11
4 -22.7912 11.7327 -5.50862
4 -22.9481 22.574 -1.99468e-11
3 -23.3145 15.0093 -8.72888
3 -20.2977 17.4278 2.88845
3 -23.4556 20.1027 2.82836
3 -23.3907 14.6278 -2.98075
3 -20.2977 17.4278 -2.88845
3 -23.4556 20.1027 -2.82836
3 -20.1561 20.1565 -5.79352
3 -20.3529 14.5483 -1.36251e-11
4 -22.6246 17.3548 5.86503
4 -22.4276 17.3585 11.652
4 -22.7912 11.7327 5.50862
4 -22.8288 22.3072 11.6446
3 -23.3907 14.6278 2.98075
3 -19.8536 17.3646 14.5165
3 -23.1735 19.9879 14.5426
3 -23.3145 15.0093 8.72888
3 -19.8449 17.4517 8.7118
3 -23.2296 19.9298 8.75202
3 -20.1561 20.1565 5.79352
3 -20.1937 14.3882 11.635
4 -22.4919 17.336 17.2842
4 -22.659 17.3519 22.7476
4 -22.6767 11.7115 17.5388
3 -23.2277 14.7812 14.637
3 -23.2682 14.4229 20.3867
3 -20.1103 17.382 20.2072
3 -23.2935 19.8974 20.0295
3 -20.0252 20.1301 17.4393
3 -20.2183 14.5034 23.3979
4 -17.4024 22.6716 -22.7564
3 -14.5026 23.2838 -20.359
3 -14.4742 20.2869 -23.398
3 -19.9965 19.9735 -23.384
4 -17.1761 22.6872 -17.5552
4 -16.8084 22.8216 -11.7681
1 -17.3574 17.302 -17.561
2 -20.3508 20.3425 -20.414
2 -20.1942 20.3089 -14.5228
3 -20.0058 23.2887 -20.0575
3 -17.3788 20.0963 -20.2564
3 -13.9954 23.3203 -9.12954
3 -20.5516 23.2825 -14.4855
3 -17.3124 20.5605 -14.5941
3 -14.1506 23.1414 -14.564
3 -14.4563 19.8836 -11.6373
3 -19.8978 20.1554 -11.6135
4 -17.5104 22.8698 -5.39112
4 -17.4762 22.6512 -1.77089e-11
1 -17.5525 17.3138 -5.58981
2 -20.2421 20.4056 -8.71393
2 -20.4646 20.3259 -2.89618
3 -20.9416 23.3391 -8.61508
3 -17.4111 21.0586 -8.60816
3 -14.8775 23.4167 2.60586
3 -20.6261 23.2816 -2.92651
3 -17.5353 20.2327 -2.8168
3 -14.8775 23.4167 -2.60586
3 -14.6158 20.0287 -1.02857e-11
3 -20.2887 20.1522 -1.60387e-11
4 -17.5104 22.8698 5.39112
4 -16.8084 22.8216 11.7681
1 -17.5525 17.3138 5.58981
2 -20.4646 20.3259 2.89618
2 -20.2421 20.4056 8.71393
3 -20.6261 23.2816 2.92651
3 -17.5353 20.2327 2.8168
3 -14.1506 23.1414 14.564
3 -20.9416 23.3391 8.61508
3 -17.4111 21.0586 8.60816
3 -13.9954 23.3203 9.12954
3 -14.4563 19.8836 11.6373
3 -19.8978 20.1554 11.6135
4 -17.1761 22.6872 17.5552
4 -17.4024 22.6716 22.7564
1 -17.3574 17.302 17.561
2 -20.1942 20.3089 14.5228
2 -20.3508 20.3425 20.414
3 -20.5516 23.2825 14.4855
3 -17.3124 20.5605 14.5941
3 -20.0058 23.2887 20.0575
3 -17.3788 20.0963 20.2564
3 -14.5026 23.2838 20.359
3 -14.4742 20.2869 23.398
3 -19.9965 19.9735 23.384
4 -11.5678 22.4483 -17.2952
4 -11.4631 22.6411 -6.1685
4 -11.4631 22.6411 6.1685
4 -11.5678 22.4483 17.2952
4 -22.7254 5.87375 -22.6476
4 -22.5916 11.6355 -22.8538
3 -20.1374 5.87861 -20.1402
3 -23.3111 8.86626 -20.4256
3 -20.3322 3.04598 -23.3389
4 -22.4443 5.78631 -17.1167
4 -22.3362 5.80952 -11.6743
4 -22.5648 0.161761 -17.3924
4 -22.6926 11.2615 -11.6338
3 -23.246 2.94851 -20.2421
3 -19.8146 5.91706 -8.75668
3 -23.2236 8.35825 -9.02536
3 -23.0628 3.1558 -14.5276
3 -19.6425 5.84496 -14.531
3 -23.1165 8.37951 -14.3712
3 -20.2521 8.7697 -17.4445
3 -19.9974 2.95754 -11.6138
4 -22.5282 5.75028 -6.07281
4 -22.6258 6.17923 -3.02727e-11
4 -22.5842 0.336004 -5.94356
4 -22.6683 11.5792 -2.40065e-11
3 -23.0736 3.05449 -8.77451
3 -20.0706 5.90141 2.86873
3 -23.298 8.927 2.67288
3 -23.2916 3.15314 -3.4672
3 -20.0706 5.90141 -2.86873
3 -23.298 8.927 -2.67288
3 -20.4218 8.77884 -5.80533
3 -20.7421 2.96835 -7.68245e-12
4 -22.5282 5.75028 6.07281
4 -22.3362 5.80952 11.6743
4 -22.5842 0.336004 5.94356
4 -22.6926 11.2615 11.6338
3 -23.2916 3.15314 3.4672
3 -19.6425 5.84496 14.531
3 -23.1165 8.37951 14.3712
3 -23.0736 3.05449 8.77451
3 -19.8146 5.91706 8.75668
3 -23.2236 8.35825 9.02536
3 -20.4218 8.77884 5.80533
3 -19.9974 2.95754 11.6138
4 -22.4443 5.78631 17.1167
4 -22.7254 5.87375 22.6476
4 -22.5648 0.161761 17.3924
4 -22.5916 11.6355 22.8538
3 -23.0628 3.1558 14.5276
3 -23.246 2.94851 20.2421
3 -20.1374 5.87861 20.1402
3 -23.3111 8.86626 20.4256
3 -20.2521 8.7697 17.4445
3 -20.3322 3.04598 23.3389
4 -17.2938 11.5839 -22.7797
4 -17.3081 17.2965 -22.7765
3 -14.459 11.6224 -20.3576
3 -17.3809 14.4748 -20.3478
3 -14.7154 8.71147 -23.4359
3 -20.2486 8.68994 -23.3533
1 -17.2902 11.6971 -17.5764
1 -17.2427 11.5694 -11.6182
1 -17.307 5.90693 -17.5849
1 -17.3377 17.1649 -11.6381
2 -20.332 8.75643 -20.362
2 -20.3014 14.5114 -20.3987
2 -20.1441 8.72486 -14.5208
2 -20.253 14.4639 -14.5411
3 -20.0874 11.632 -20.258
3 -17.4 8.76043 -20.2265
3 -14.0063 11.7523 -8.95237
3 -17.4585 14.0788 -8.84622
3 -20.5388 11.5928 -14.5739
3 -17.2762 9.33054 -14.7536
3 -13.8363 11.5974 -14.5145
3 -17.3247 13.9927 -14.4925
3 -20.0793 14.484 -17.4652
3 -14.5396 14.4218 -17.4974
3 -14.7339 8.70417 -11.6222
3 -19.8314 8.73275 -11.6184
1 -17.6028 11.7801 -5.726
1 -17.3944 11.6836 -9.77116e-12
1 -17.5883 6.15731 -5.75585
1 -17.4639 17.3998 -9.85895e-12
2 -20.2969 8.80093 -8.72907
2 -20.3795 14.5518 -8.72617
2 -20.345 8.78776 -2.8879
2 -20.4304 14.5514 -2.89014
3 -20.6957 11.669 -8.56523
3 -17.3872 9.28561 -8.45395
3 -14.2697 11.7603 2.55187
3 -17.4763 14.5287 2.71303
3 -20.2374 11.6858 -2.83932
3 -17.4213 9.05296 -3.2135
3 -14.2697 11.7603 -2.55187
3 -17.4763 14.5287 -2.71303
3 -20.1686 14.5575 -5.79593
3 -14.9123 14.3844 -5.77859
3 -14.9649 8.6496 -4.61244e-12
3 -19.9189 8.79055 -1.0639e-11
1 -17.6028 11.7801 5.726
1 -17.2427 11.5694 11.6182
1 -17.5883 6.15731 5.75585
1 -17.3377 17.1649 11.6381
2 -20.345 8.78776 2.8879
2 -20.4304 14.5514 2.89014
2 -20.2969 8.80093 8.72907
2 -20.3795 14.5518 8.72617
3 -20.2374 11.6858 2.83932
3 -17.4213 9.05296 3.2135
3 -13.8363 11.5974 14.5145
3 -17.3247 13.9927 14.4925
3 -20.6957 11.669 8.56523
3 -17.3872 9.28561 8.45395
3 -14.0063 11.7523 8.95237
3 -17.4585 14.0788 8.84622
3 -20.1686 14.5575 5.79593
3 -14.9123 14.3844 5.77859
3 -14.7339 8.70417 11.6222
3 -19.8314 8.73275 11.6184
1 -17.2902 11.6971 17.5764
4 -17.2938 11.5839 22.7797
1 -17.307 5.90693 17.5849
4 -17.3081 17.2965 22.7765
2 -20.1441 8.72486 14.5208
2 -20.253 14.4639 14.5411
2 -20.332 8.75643 20.362
2 -20.3014 14.5114 20.3987
3 -20.5388 11.5928 14.5739
3 -17.2762 9.33054 14.7536
3 -20.0874 11.632 20.258
3 -17.4 8.76043 20.2265
3 -14.459 11.6224 20.3576
3 -17.3809 14.4748 20.3478
3 -20.0793 14.484 17.4652
3 -14.5396 14.4218 17.4974
3 -14.7154 8.71147 23.4359
3 -20.2486 8.68994 23.3533
4 -11.6562 17.2566 -22.802
4 -11.6252 22.7195 -22.7358
3 -8.74678 17.3749 -20.4552
3 -11.6197 20.1055 -20.2572
3 -8.78073 14.4457 -23.4079
3 -14.483 14.5455 -23.4269
1 -11.6212 17.3372 -17.6412
1 -11.4176 17.293 -11.5721
1 -11.6938 11.6022 -17.676
4 -11.5481 22.3923 -11.7961
2 -14.4984 14.5018 -20.4528
2 -14.5045 20.3057 -20.4122
2 -14.4131 14.4626 -14.5395
2 -14.4418 20.1577 -14.5514
3 -14.4829 17.383 -20.3209
3 -11.6202 14.4945 -20.2559
3 -8.42234 17.3158 -8.94799
3 -11.6743 19.8808 -8.7848
3 -15.0705 17.3091 -14.6852
3 -11.5853 15.1778 -14.6918
3 -8.10205 17.2532 -14.4251
3 -11.5633 19.6999 -14.5816
3 -14.4468 20.1131 -17.4848
3 -8.7243 19.9903 -17.49
3 -9.13744 14.1909 -11.6099
3 -14.3835 14.7651 -11.615
1 -11.8603 17.7174 -5.71538
1 -11.573 17.5453 -7.86224e-12
1 -11.911 12.1468 -5.75195
4 -12.0489 22.7702 -1.20813e-11
2 -14.587 14.6293 -8.69542
2 -14.5731 20.4013 -8.74063
2 -14.5616 14.6486 -2.87097
2 -14.6145 20.4716 -2.89561
3 -15.1909 17.5146 -8.44739
3 -11.7316 15.1399 -8.34389
3 -8.57037 17.5569 2.47253
3 -11.7016 20.2837 2.88046
3 -14.7248 17.5503 -3.19742
3 -11.7024 14.9996 -3.24854
3 -8.57037 17.5569 -2.47253
3 -11.7016 20.2837 -2.88046
3 -14.5181 20.5781 -5.81329
3 -8.83777 19.9898 -5.81822
3 -9.36902 14.3438 -4.73455e-12
3 -14.4163 15.0646 -7.78733e-12
1 -11.8603 17.7174 5.71538
1 -11.4176 17.293 11.5721
1 -11.911 12.1468 5.75195
4 -11.5481 22.3923 11.7961
2 -14.5616 14.6486 2.87097
2 -14.6145 20.4716 2.89561
2 -14.587 14.6293 8.69542
2 -14.5731 20.4013 8.74063
3 -14.7248 17.5503 3.19742
3 -11.7024 14.9996 3.24854
3 -8.10205 17.2532 14.4251
3 -11.5633 19.6999 14.5816
3 -15.1909 17.5146 8.44739
3 -11.7316 15.1399 8.34389
3 -8.42234 17.3158 8.94799
3 -11.6743 19.8808 8.7848
3 -14.5181 20.5781 5.81329
3 -8.83777 19.9898 5.81822
3 -9.13744 14.1909 11.6099
3 -14.3835 14.7651 11.615
1 -11.6212 17.3372 17.6412
4 -11.6562 17.2566 22.802
1 -11.6938 11.6022 17.676
4 -11.6252 22.7195 22.7358
2 -14.4131 14.4626 14.5395
2 -14.4418 20.1577 14.5514
2 -14.4984 14.5018 20.4528
2 -14.5045 20.3057 20.4122
3 -15.0705 17.3091 14.6852
3 -11.5853 15.1778 14.6918
3 -14.4829 17.383 20.3209
3 -11.6202 14.4945 20.2559
3 -8.74678 17.3749 20.4552
3 -11.6197 20.1055 20.2572
3 -14.4468 20.1131 17.4848
3 -8.7243 19.9903 17.49
3 -8.78073 14.4457 23.4079
3 -14.483 14.5455 23.4269
4 -5.87556 22.65 -22.7771
3 -3.07579 23.2927 -20.3672
3 -2.9561 20.2674 -23.3422
3 -8.77162 20.3394 -23.4191
4 -5.98154 22.6335 -17.4978
4 -5.72377 22.6288 -11.4856
1 -5.90489 17.267 -17.5634
2 -8.74388 20.286 -20.4216
2 -8.67527 20.1498 -14.5647
3 -8.72264 23.2564 -20.325
3 -5.87145 20.0695 -20.2598
3 -2.83952 23.1844 -8.92737
3 -8.98375 23.1343 -14.697
3 -5.8199 20.5467 -14.5079
3 -2.59464 23.1253 -14.396
3 -2.93465 19.8681 -11.6061
3 -8.66775 20.1088 -11.6613
4 -6.03826 22.6839 -5.94289
4 -5.38654 22.7178 3.52656e-12
1 -5.97715 17.5743 -5.83889
2 -8.77666 20.2261 -8.74902
2 -8.78802 20.5258 -2.89455
3 -8.77085 23.1828 -8.83595
3 -5.88082 20.2436 -8.68725
3 -2.66158 23.1931 2.7151
3 -8.89506 23.4395 -3.54859
3 -5.88707 20.4635 -2.9344
3 -2.66158 23.1931 -2.7151
3 -2.93426 19.8374 -6.81679e-13
3 -8.79165 20.9516 -6.99113e-12
4 -6.03826 22.6839 5.94289
4 -5.72377 22.6288 11.4856
1 -5.97715 17.5743 5.83889
2 -8.78802 20.5258 2.89455
2 -8.77666 20.2261 8.74902
3 -8.89506 23.4395 3.54859
3 -5.88707 20.4635 2.9344
3 -2.59464 23.1253 14.396
3 -8.77085 23.1828 8.83595
3 -5.88082 20.2436 8.68725
3 -2.83952 23.1844 8.92737
3 -2.93465 19.8681 11.6061
3 -8.66775 20.1088 11.6613
4 -5.98154 22.6335 17.4978
4 -5.87556 22.65 22.7771
1 -5.90489 17.267 17.5634
2 -8.67527 20.1498 14.5647
2 -8.74388 20.286 20.4216
3 -8.98375 23.1343 14.697
3 -5.8199 20.5467 14.5079
3 -8.72264 23.2564 20.325
3 -5.87145 20.0695 20.2598
3 -3.07579 23.2927 20.3672
3 -2.9561 20.2674 23.3422
3 -8.77162 20.3394 23.4191
4 -0.0541202 22.4184 -17.145
4 -0.0251464 22.4627 -5.80434
4 -0.0251464 22.4627 5.80434
4 -0.0541202 22.4184 17.145
4 -22.676 -5.61753 -22.5434
4 -22.626 0.120637 -22.695
3 -19.9966 -5.62261 -20.1246
3 -23.2212 -2.68447 -20.2582
3 -20.3466 -8.46433 -23.2905
4 -22.3325 -5.68866 -17.1591
4 -22.3268 -5.58349 -11.6507
4 -22.5039 -11.163 -17.2851
4 -22.5321 0.0834268 -11.4896
3 -23.1425 -8.50307 -20.1062
3 -19.8482 -5.63365 -8.69688
3 -23.1197 -2.83415 -9.00627
3 -22.9992 -8.3438 -14.6153
3 -19.5825 -5.65424 -14.4742
3 -23.0405 -3.08426 -14.4624
3 -20.0893 -2.7311 -17.4025
3 -20.1077 -8.55853 -11.5561
4 -22.3792 -5.79063 -5.71374
4 -22.3205 -5.70384 5.16995e-11
4 -22.4038 -11.1965 -5.7633
4 -22.606 -0.378946 1.46198e-11
3 -23.0294 -8.52863 -8.46643
3 -19.7192 -5.66115 2.87216
3 -23.0987 -3.15454 2.68113
3 -22.9892 -8.48105 -3.0503
3 -19.7192 -5.66115 -2.87216
3 -23.0987 -3.15454 -2.68113
3 -20.2728 -2.74129 -5.8053
3 -20.0814 -8.62875 2.23108e-11
4 -22.3792 -5.79063 5.71374
4 -22.3268 -5.58349 11.6507
4 -22.4038 -11.1965 5.7633
4 -22.5321 0.0834268 11.4896
3 -22.9892 -8.48105 3.0503
3 -19.5825 -5.65424 14.4742
3 -23.0405 -3.08426 14.4624
3 -23.0294 -8.52863 8.46643
3 -19.8482 -5.63365 8.69688
3 -23.1197 -2.83415 9.00627
3 -20.2728 -2.74129 5.8053
3 -20.1077 -8.55853 11.5561
4 -22.3325 -5.68866 17.1591
4 -22.676 -5.61753 22.5434
4 -22.5039 -11.163 17.2851
4 -22.626 0.120637 22.695
3 -22.9992 -8.3438 14.6153
3 -23.1425 -8.50307 20.1062
3 -19.9966 -5.62261 20.1246
3 -23.2212 -2.68447 20.2582
3 -20.0893 -2.7311 17.4025
3 -20.3466 -8.46433 23.2905
4 -17.2013 0.0908211 -22.7349
4 -17.3287 5.92411 -22.734
3 -14.4278 0.12183 -20.2439
3 -17.3607 3.02357 -20.3814
3 -14.5798 -2.74899 -23.3654
3 -20.2444 -2.7833 -23.3016
1 -17.2228 0.17663 -17.504
1 -17.2445 0.00229431 -11.5139
1 -17.2071 -5.5085 -17.4934
1 -17.1967 5.71969 -11.5259
2 -20.2402 -2.74607 -20.3171
2 -20.2752 3.00061 -20.3435
2 -20.0671 -2.77916 -14.4809
2 -20.0667 2.95356 -14.5031
3 -20.0247 0.12907 -20.2013
3 -17.3122 -2.73042 -20.2122
3 -13.8681 0.242651 -8.96643
3 -17.2004 2.69319 -8.91881
3 -20.382 0.0847446 -14.466
3 -17.1767 -2.23285 -14.6931
3 -13.6904 0.141827 -14.4535
3 -17.1688 2.39606 -14.3886
3 -19.9755 2.96986 -17.4192
3 -14.5615 2.95796 -17.4487
3 -14.6377 -2.80282 -11.5848
3 -19.7723 -2.80484 -11.5885
1 -17.4527 0.23334 -5.82361
1 -17.1668 -0.063052 1.23351e-11
1 -17.4035 -5.3665 -5.83055
1 -17.3932 5.76753 -4.28636e-12
2 -20.1761 -2.7528 -8.70926
2 -20.1146 3.02588 -8.71287
2 -20.1637 -2.78241 -2.89139
2 -20.3647 3.00204 -2.88871
3 -20.1334 0.133739 -8.67839
3 -17.2224 -2.45911 -8.42292
3 -13.9974 0.223476 2.50253
3 -17.4028 2.74417 2.48352
3 -20.3684 0.104541 -2.94855
3 -17.2456 -2.36038 -3.1973
3 -13.9974 0.223476 -2.50253
3 -17.4028 2.74417 -2.48352
3 -19.8664 3.09695 -5.80002
3 -14.7348 2.80783 -5.76555
3 -14.7444 -2.99803 4.21021e-12
3 -19.7333 -2.85015 -3.65722e-12
1 -17.4527 0.23334 5.82361
1 -17.2445 0.00229431 11.5139
1 -17.4035 -5.3665 5.83055
1 -17.1967 5.71969 11.5259
2 -20.1637 -2.78241 2.89139
2 -20.3647 3.00204 2.88871
2 -20.1761 -2.7528 8.70926
2 -20.1146 3.02588 8.71287
3 -20.3684 0.104541 2.94855
3 -17.2456 -2.36038 3.1973
3 -13.6904 0.141827 14.4535
3 -17.1688 2.39606 14.3886
3 -20.1334 0.133739 8.67839
3 -17.2224 -2.45911 8.42292
3 -13.8681 0.242651 8.96643
3 -17.2004 2.69319 8.91881
3 -19.8664 3.09695 5.80002
3 -14.7348 2.80783 5.76555
3 -14.6377 -2.80282 11.5848
3 -19.7723 -2.80484 11.5885
1 -17.2228 0.17663 17.504
4 -17.2013 0.0908211 22.7349
1 -17.2071 -5.5085 17.4934
4 -17.3287 5.92411 22.734
2 -20.0671 -2.77916 14.4809
2 -20.0667 2.95356 14.5031
2 -20.2402 -2.74607 20.3171
2 -20.2752 3.00061 20.3435
3 -20.382 0.0847446 14.466
3 -17.1767 -2.23285 14.6931
3 -20.0247 0.12907 20.2013
3 -17.3122 -2.73042 20.2122
3 -14.4278 0.12183 20.2439
3 -17.3607 3.02357 20.3814
3 -19.9755 2.96986 17.4192
3 -14.5615 2.95796 17.4487
3 -14.5798 -2.74899 23.3654
3 -20.2444 -2.7833 23.3016
4 -11.6573 5.719 -22.7852
4 -11.5249 11.673 -22.7832
3 -8.70611 5.862 -20.4539
3 -11.6267 8.71548 -20.4679
3 -8.94675 2.85591 -23.4143
3 -14.4494 2.96574 -23.3678
1 -11.6455 5.95948 -17.6518
1 -11.0651 5.6915 -11.6277
1 -11.6046 0.142501 -17.6055
1 -11.5098 11.2117 -11.634
2 -14.4695 2.99637 -20.3992
2 -14.5124 8.74547 -20.4709
2 -14.3036 3.02993 -14.4988
2 -14.4151 8.70757 -14.5479
3 -14.4979 5.87296 -20.2599
3 -11.5909 3.00956 -20.1484
3 -8.09632 5.88265 -9.05788
3 -11.6265 8.22801 -9.0303
3 -15.093 5.86692 -14.6724
3 -11.4561 3.64746 -14.797
3 -8.02705 5.82598 -14.3484
3 -11.5514 8.08152 -14.3843
3 -14.3309 8.79132 -17.5071
3 -8.87657 8.53895 -17.5058
3 -8.87442 2.6842 -11.6342
3 -14.0884 3.41081 -11.5917
1 -12.038 6.19092 -5.75705
1 -11.1631 5.74423 -4.36078e-12
1 -11.7292 0.641752 -5.77217
1 -11.5616 11.343 -5.69286e-12
2 -14.3362 3.13638 -8.68218
2 -14.4838 8.86599 -8.69709
2 -14.4834 3.10053 -2.85058
2 -14.5267 8.84695 -2.87706
3 -14.9669 5.99443 -8.33449
3 -11.4715 3.62326 -8.34179
3 -8.21136 5.92323 2.55394
3 -11.6515 8.38127 2.53576
3 -14.918 5.96929 -3.25772
3 -11.5583 3.53874 -3.21867
3 -8.21136 5.92323 -2.55394
3 -11.6515 8.38127 -2.53576
3 -14.2421 9.24272 -5.78173
3 -9.07251 8.47102 -5.79568
3 -8.97912 2.72539 7.29068e-12
3 -14.1906 3.61411 7.92281e-13
1 -12.038 6.19092 5.75705
1 -11.0651 5.6915 11.6277
1 -11.7292 0.641752 5.77217
1 -11.5098 11.2117 11.634
2 -14.4834 3.10053 2.85058
2 -14.5267 8.84695 2.87706
2 -14.3362 3.13638 8.68218
2 -14.4838 8.86599 8.69709
3 -14.918 5.96929 3.25772
3 -11.5583 3.53874 3.21867
3 -8.02705 5.82598 14.3484
3 -11.5514 8.08152 14.3843
3 -14.9669 5.99443 8.33449
3 -11.4715 3.62326 8.34179
3 -8.09632 5.88265 9.05788
3 -11.6265 8.22801 9.0303
3 -14.2421 9.24272 5.78173
3 -9.07251 8.47102 5.79568
3 -8.87442 2.6842 11.6342
3 -14.0884 3.41081 11.5917
1 -11.6455 5.95948 17.6518
4 -11.6573 5.719 22.7852
1 -11.6046 0.142501 17.6055
4 -11.5249 11.673 22.7832
2 -14.3036 3.02993 14.4988
2 -14.4151 8.70757 14.5479
2 -14.4695 2.99637 20.3992
2 -14.5124 8.74547 20.4709
3 -15.093 5.86692 14.6724
3 -11.4561 3.64746 14.797
3 -14.4979 5.87296 20.2599
3 -11.5909 3.00956 20.1484
3 -8.70611 5.862 20.4539
3 -11.6267 8.71548 20.4679
3 -14.3309 8.79132 17.5071
3 -8.87657 8.53895 17.5058
3 -8.94675 2.85591 23.4143
3 -14.4494 2.96574 23.3678
4 -5.91264 11.5639 -22.7484
4 -5.79277 17.2596 -22.7897
3 -2.97832 11.6209 -20.3929
3 -5.86282 14.4676 -20.3262
3 -3.05597 8.70116 -23.3857
3 -8.6354 8.91973 -23.4234
1 -5.86967 11.6834 -17.6502
1 -5.5144 11.4178 -11.6273
1 -5.92821 5.92621 -17.6148
1 -5.73585 17.3285 -11.5301
2 -8.73885 8.7396 -20.4638
2 -8.74143 14.4892 -20.4356
2 -8.66323 8.7035 -14.5681
2 -8.75148 14.3831 -14.5254
3 -8.76394 11.6149 -20.1855
3 -5.86177 8.77449 -20.1788
3 -2.5056 11.5285 -9.04556
3 -5.99354 13.9673 -8.96644
3 -9.42148 11.5418 -14.7937
3 -5.80876 9.33009 -14.8178
3 -2.34853 11.5219 -14.3403
3 -5.8713 13.7581 -14.4894
3 -8.66638 14.6084 -17.4838
3 -3.0528 14.342 -17.4731
3 -3.29367 8.38517 -11.6348
3 -8.48045 9.00187 -11.6383
1 -6.40117 11.8501 -5.77646
1 -5.50409 11.4291 -1.44508e-11
1 -6.05146 6.3129 -5.8037
1 -5.72081 17.2638 -7.40611e-12
2 -8.74482 8.74174 -8.71612
2 -8.88303 14.4583 -8.69435
2 -8.76088 8.80799 -2.89253
2 -8.83473 14.6245 -2.84872
3 -9.38033 11.5985 -8.36009
3 -5.87226 9.29189 -8.36664
3 -2.55291 11.5609 2.55657
3 -5.97268 14.122 2.5051
3 -9.27468 11.7001 -3.21194
3 -5.8728 9.25827 -3.2387
3 -2.55291 11.5609 -2.55657
3 -5.97268 14.122 -2.5051
3 -8.5607 14.8689 -5.77107
3 -3.47513 14.1603 -5.78566
3 -3.35377 8.3737 -2.56083e-12
3 -8.48097 9.16687 -2.98071e-12
1 -6.40117 11.8501 5.77646
1 -5.5144 11.4178 11.6273
1 -6.05146 6.3129 5.8037
1 -5.73585 17.3285 11.5301
2 -8.76088 8.80799 2.89253
2 -8.83473 14.6245 2.84872
2 -8.74482 8.74174 8.71612
2 -8.88303 14.4583 8.69435
3 -9.27468 11.7001 3.21194
3 -5.8728 9.25827 3.2387
3 -2.34853 11.5219 14.3403
3 -5.8713 13.7581 14.4894
3 -9.38033 11.5985 8.36009
3 -5.87226 9.29189 8.36664
3 -2.5056 11.5285 9.04556
3 -5.99354 13.9673 8.96644
3 -8.5607 14.8689 5.77107
3 -3.47513 14.1603 5.78566
3 -3.29367 8.38517 11.6348
3 -8.48045 9.00187 11.6383
1 -5.86967 11.6834 17.6502
4 -5.91264 11.5639 22.7484
1 -5.92821 5.92621 17.6148
4 -5.79277 17.2596 22.7897
2 -8.66323 8.7035 14.5681
2 -8.75148 14.3831 14.5254
2 -8.73885 8.7396 20.4638
2 -8.74143 14.4892 20.4356
3 -9.42148 11.5418 14.7937
3 -5.80876 9.33009 14.8178
3 -8.76394 11.6149 20.1855
3 -5.86177 8.77449 20.1788
3 -2.97832 11.6209 20.3929
3 -5.86282 14.4676 20.3262
3 -8.66638 14.6084 17.4838
3 -3.0528 14.342 17.4731
3 -3.05597 8.70116 23.3857
3 -8.6354 8.91973 23.4234
4 -0.143 17.2746 -22.7209
4 -0.116199 22.7005 -22.6331
3 2.77596 17.3382 -20.3848
3 -0.118814 20.0952 -20.1406
3 2.75637 14.397 -23.3538
3 -2.93224 14.6525 -23.4009
1 -0.185132 17.2958 -17.545
1 0.00527232 17.184 -11.4884
1 -0.206736 11.6269 -17.5893
4 -0.0987849 22.39 -11.6091
2 -2.98293 14.4982 -20.4346
2 -2.99596 20.3137 -20.3514
2 -2.98771 14.392 -14.52
2 -2.96015 20.158 -14.5051
3 -2.99214 17.3841 -20.2347
3 -0.109459 14.482 -20.2016
3 3.02312 17.1889 -8.92452
3 -0.126208 19.8673 -8.71637
3 -3.55032 17.2728 -14.7109
3 -0.126944 15.0433 -14.6586
3 3.33816 17.1796 -14.3373
3 -0.087287 19.641 -14.5052
3 -3.02952 20.2047 -17.4332
3 2.75732 19.9285 -17.3993
3 2.36766 14.0767 -11.5832
3 -2.94913 14.7032 -11.6074
1 -0.403927 17.4854 -5.8229
1 0.105972 17.2654 -4.55075e-12
1 -0.422448 11.9387 -5.79064
4 -0.111061 22.4316 4.4927e-11
2 -3.09776 14.3813 -8.69936
2 -2.99594 20.2401 -8.71993
2 -3.06908 14.4404 -2.8816
2 -2.99551 20.2553 -2.89398
3 -3.31796 17.2972 -8.45712
3 -0.211049 14.8122 -8.35572
3 3.10319 17.2178 2.58389
3 -0.117281 19.8168 2.87163
3 -3.41673 17.3378 -3.18184
3 -0.19691 14.8642 -3.2805
3 3.10319 17.2178 -2.58389
3 -0.117281 19.8168 -2.87163
3 -3.03775 20.311 -5.8113
3 2.66353 19.8111 -5.7911
3 2.19958 14.066 -1.11527e-11
3 -2.77073 14.8305 -7.41279e-12
1 -0.403927 17.4854 5.8229
1 0.00527232 17.184 11.4884
1 -0.422448 11.9387 5.79064
4 -0.0987849 22.39 11.6091
2 -3.06908 14.4404 2.8816
2 -2.99551 20.2553 2.89398
2 -3.09776 14.3813 8.69936
2 -2.99594 20.2401 8.71993
3 -3.41673 17.3378 3.18184
3 -0.19691 14.8642 3.2805
3 3.33816 17.1796 14.3373
3 -0.087287 19.641 14.5052
3 -3.31796 17.2972 8.45712
3 -0.211049 14.8122 8.35572
3 3.02312 17.1889 8.92452
3 -0.126208 19.8673 8.71637
3 -3.03775 20.311 5.8113
3 2.66353 19.8111 5.7911
3 2.36766 14.0767 11.5832
3 -2.94913 14.7032 11.6074
1 -0.185132 17.2958 17.545
4 -0.143 17.2746 22.7209
1 -0.206736 11.6269 17.5893
4 -0.116199 22.7005 22.6331
2 -2.98771 14.392 14.52
2 -2.96015 20.158 14.5051
2 -2.98293 14.4982 20.4346
2 -2.99596 20.3137 20.3514
3 -3.55032 17.2728 14.7109
3 -0.126944 15.0433 14.6586
3 -2.99214 17.3841 20.2347
3 -0.109459 14.482 20.2016
3 2.77596 17.3382 20.3848
3 -0.118814 20.0952 20.1406
3 -3.02952 20.2047 17.4332
3 2.75732 19.9285 17.3993
3 2.75637 14.397 23.3538
3 -2.93224 14.6525 23.4009
4 5.62947 22.569 -22.7164
3 8.41456 23.2709 -20.3276
3 8.57691 20.1839 -23.2246
3 2.70791 20.2985 -23.326
4 5.46928 22.5832 -17.3614
4 5.80365 22.5078 -11.4492
1 5.57177 17.2283 -17.4616
2 2.75947 20.2472 -20.3273
2 2.79336 20.0838 -14.4774
3 2.80111 23.2168 -20.239
3 5.63585 20.0356 -20.1487
3 8.67562 23.0655 -8.89377
3 2.5993 23.0767 -14.5974
3 5.66801 20.3717 -14.4431
3 8.8584 23.0721 -14.2316
3 8.58171 19.7174 -11.5376
3 2.81154 20.0864 -11.5862
4 5.40065 22.5186 -5.83261
4 5.98965 22.4726 -6.00149e-11
1 5.51423 17.3785 -5.78894
2 2.75392 20.1231 -8.68935
2 2.76928 20.1549 -2.89084
3 2.69023 23.0814 -8.58672
3 5.64 20.1094 -8.63728
3 8.85137 23.0227 2.65306
3 2.6344 23.1097 -3.15636
3 5.66214 20.2166 -2.94055
3 8.85137 23.0227 -2.65306
3 8.60609 19.6469 4.32708e-12
3 2.86934 20.2572 8.47475e-12
4 5.40065 22.5186 5.83261
4 5.80365 22.5078 11.4492
1 5.51423 17.3785 5.78894
2 2.76928 20.1549 2.89084
2 2.75392 20.1231 8.68935
3 2.6344 23.1097 3.15636
3 5.66214 20.2166 2.94055
3 8.8584 23.0721 14.2316
3 2.69023 23.0814 8.58672
3 5.64 20.1094 8.63728
3 8.67562 23.0655 8.89377
3 8.58171 19.7174 11.5376
3 2.81154 20.0864 11.5862
4 5.46928 22.5832 17.3614
4 5.62947 22.569 22.7164
1 5.57177 17.2283 17.4616
2 2.79336 20.0838 14.4774
2 2.75947 20.2472 20.3273
3 2.5993 23.0767 14.5974
3 5.66801 20.3717 14.4431
3 2.80111 23.2168 20.239
3 5.63585 20.0356 20.1487
3 8.41456 23.2709 20.3276
3 8.57691 20.1839 23.2246
3 2.70791 20.2985 23.326
4 11.4929 22.4539 -16.9889
4 11.5363 22.3345 -5.69158
4 11.5363 22.3345 5.69158
4 11.4929 22.4539 16.9889
4 -22.6189 -17.1051 -22.4942
4 -22.5858 -11.3677 -22.5844
3 -20.0861 -17.1413 -19.9333
3 -23.2399 -14.159 -20.2082
3 -19.9776 -19.719 -23.1563
4 -22.5104 -17.1296 -16.9865
4 -22.2961 -17.1092 -11.4587
4 -22.6404 -22.3621 -17.2016
4 -22.4467 -11.5822 -11.4063
3 -23.2696 -19.68 -19.7711
3 -19.8209 -17.2029 -8.59271
3 -23.0189 -14.4594 -8.79351
3 -23.1008 -19.9185 -14.2825
3 -19.8026 -17.1871 -14.3492
3 -23.077 -14.5307 -14.1269
3 -20.2586 -14.201 -17.2654
3 -19.8602 -19.9697 -11.4891
4 -22.379 -17.1585 -5.70847
4 -22.2196 -17.1325 1.47888e-11
4 -22.604 -22.2929 -5.74293
4 -22.3859 -11.6447 -1.90489e-12
3 -23.0579 -19.9068 -8.61661
3 -19.7473 -17.224 2.88721
3 -22.9725 -14.5378 2.66475
3 -23.0235 -19.8886 -2.8606
3 -19.7473 -17.224 -2.88721
3 -22.9725 -14.5378 -2.66475
3 -20.1417 -14.2505 -5.74672
3 -19.7926 -20.0061 3.73132e-11
4 -22.379 -17.1585 5.70847
4 -22.2961 -17.1092 11.4587
4 -22.604 -22.2929 5.74293
4 -22.4467 -11.5822 11.4063
3 -23.0235 -19.8886 2.8606
3 -19.8026 -17.1871 14.3492
3 -23.077 -14.5307 14.1269
3 -23.0579 -19.9068 8.61661
3 -19.8209 -17.2029 8.59271
3 -23.0189 -14.4594 8.79351
3 -20.1417 -14.2505 5.74672
3 -19.8602 -19.9697 11.4891
4 -22.5104 -17.1296 16.9865
4 -22.6189 -17.1051 22.4942
4 -22.6404 -22.3621 17.2016
4 -22.5858 -11.3677 22.5844
3 -23.1008 -19.9185 14.2825
3 -23.2696 -19.68 19.7711
3 -20.0861 -17.1413 19.9333
3 -23.2399 -14.159 20.2082
3 -20.2586 -14.201 17.2654
3 -19.9776 -19.719 23.1563
4 -17.2025 -11.5869 -22.627
4 -17.1962 -5.54724 -22.7134
3 -14.3869 -11.4092 -20.1918
3 -17.2731 -8.52521 -20.4673
3 -14.6432 -14.4436 -23.2481
3 -20.1402 -14.2627 -23.1518
1 -17.1942 -11.3505 -17.3553
1 -17.1908 -11.5166 -11.4414
1 -17.2566 -17.0942 -17.2677
1 -17.106 -5.75793 -11.4791
2 -20.2536 -14.2639 -20.1706
2 -20.1708 -8.50168 -20.2957
2 -20.1085 -14.2931 -14.3716
2 -20.0102 -8.53222 -14.4466
3 -19.9848 -11.38 -20.0807
3 -17.3109 -14.2761 -19.9447
3 -13.879 -11.33 -8.90919
3 -17.1333 -8.73514 -8.94353
3 -20.2433 -11.4164 -14.3812
3 -17.1866 -13.9805 -14.701
3 -13.7185 -11.3689 -14.3793
3 -17.1062 -9.04243 -14.2157
3 -19.7942 -8.48904 -17.3659
3 -14.5996 -8.57165 -17.393
3 -14.6784 -14.3361 -11.5347
3 -19.6925 -14.3464 -11.4956
1 -17.2794 -11.3188 -5.77301
1 -17.1051 -11.5385 2.73282e-11
1 -17.1735 -17.0846 -5.76537
1 -17.1575 -5.87334 1.00587e-11
2 -20.0542 -14.3077 -8.62192
2 -20.0737 -8.52002 -8.66508
2 -20.0068 -14.3276 -2.86852
2 -20.0268 -8.5469 -2.88443
3 -20.0047 -11.4175 -8.62046
3 -17.1116 -14.0921 -8.31018
3 -13.7863 -11.3217 2.5843
3 -17.0979 -8.85462 2.59131
3 -20.0522 -11.4429 -2.89449
3 -17.0759 -14.0487 -3.22961
3 -13.7863 -11.3217 -2.5843
3 -17.0979 -8.85462 -2.59131
3 -19.7117 -8.45845 -5.77651
3 -14.569 -8.74934 -5.77646
3 -14.6548 -14.4159 4.41549e-11
3 -19.5999 -14.3775 3.9198e-11
1 -17.2794 -11.3188 5.77301
1 -17.1908 -11.5166 11.4414
1 -17.1735 -17.0846 5.76537
1 -17.106 -5.75793 11.4791
2 -20.0068 -14.3276 2.86852
2 -20.0268 -8.5469 2.88443
2 -20.0542 -14.3077 8.62192
2 -20.0737 -8.52002 8.66508
3 -20.0522 -11.4429 2.89449
3 -17.0759 -14.0487 3.22961
3 -13.7185 -11.3689 14.3793
3 -17.1062 -9.04243 14.2157
3 -20.0047 -11.4175 8.62046
3 -17.1116 -14.0921 8.31018
3 -13.879 -11.33 8.90919
3 -17.1333 -8.73514 8.94353
3 -19.7117 -8.45845 5.77651
3 -14.569 -8.74934 5.77646
3 -14.6784 -14.3361 11.5347
3 -19.6925 -14.3464 11.4956
1 -17.1942 -11.3505 17.3553
4 -17.2025 -11.5869 22.627
1 -17.2566 -17.0942 17.2677
4 -17.1962 -5.54724 22.7134
2 -20.1085 -14.2931 14.3716
2 -20.0102 -8.53222 14.4466
2 -20.2536 -14.2639 20.1706
2 -20.1708 -8.50168 20.2957
3 -20.2433 -11.4164 14.3812
3 -17.1866 -13.9805 14.701
3 -19.9848 -11.38 20.0807
3 -17.3109 -14.2761 19.9447
3 -14.3869 -11.4092 20.1918
3 -17.2731 -8.52521 20.4673
3 -19.7942 -8.48904 17.3659
3 -14.5996 -8.57165 17.393
3 -14.6432 -14.4436 23.2481
3 -20.1402 -14.2627 23.1518
4 -11.5224 -5.74649 -22.673
4 -11.5728 0.152973 -22.7171
3 -8.66473 -5.66161 -20.2457
3 -11.5512 -2.77323 -20.3621
3 -8.86083 -8.53924 -23.2999
3 -14.2165 -8.52548 -23.3052
1 -11.5869 -5.4881 -17.5562
1 -10.9881 -5.84323 -11.6039
1 -11.5571 -11.3653 -17.5178
1 -11.3106 -0.25187 -11.6231
2 -14.3868 -8.51965 -20.3396
2 -14.4277 -2.75516 -20.4002
2 -14.2308 -8.4663 -14.4659
2 -14.2932 -2.74468 -14.4882
3 -14.4167 -5.63415 -20.1826
3 -11.5082 -8.49261 -19.9867
3 -8.01007 -5.62997 -9.04543
3 -11.445 -3.23639 -9.05245
3 -14.9109 -5.61355 -14.6224
3 -11.3646 -7.92997 -14.8127
3 -7.94463 -5.68815 -14.2816
3 -11.4202 -3.36332 -14.2924
3 -14.2589 -2.69777 -17.4385
3 -8.80855 -2.92476 -17.4397
3 -8.80862 -8.8579 -11.5845
3 -13.9451 -8.16319 -11.5678
1 -11.8365 -5.32814 -5.79511
1 -10.9434 -5.79115 2.44898e-11
1 -11.5909 -10.9759 -5.77662
1 -11.2981 -0.217782 8.18552e-12
2 -14.2338 -8.42034 -8.6756
2 -14.3013 -2.65052 -8.68428
2 -14.2172 -8.41584 -2.87224
2 -14.3438 -2.68038 -2.87868
3 -14.7122 -5.54527 -8.35195
3 -11.3484 -7.99992 -8.31555
3 -7.99944 -5.62263 2.55402
3 -11.4627 -3.19092 2.5512
3 -14.7586 -5.55747 -3.29621
3 -11.3333 -7.97784 -3.26408
3 -7.99944 -5.62263 -2.55402
3 -11.4627 -3.19092 -2.5512
3 -14.0531 -2.26925 -5.77962
3 -8.87357 -3.05014 -5.8074
3 -8.81587 -8.83735 2.15057e-11
3 -13.9465 -7.96538 1.20525e-11
1 -11.8365 -5.32814 5.79511
1 -10.9881 -5.84323 11.6039
1 -11.5909 -10.9759 5.77662
1 -11.3106 -0.25187 11.6231
2 -14.2172 -8.41584 2.87224
2 -14.3438 -2.68038 2.87868
2 -14.2338 -8.42034 8.6756
2 -14.3013 -2.65052 8.68428
3 -14.7586 -5.55747 3.29621
3 -11.3333 -7.97784 3.26408
3 -7.94463 -5.68815 14.2816
3 -11.4202 -3.36332 14.2924
3 -14.7122 -5.54527 8.35195
3 -11.3484 -7.99992 8.31555
3 -8.01007 -5.62997 9.04543
3 -11.445 -3.23639 9.05245
3 -14.0531 -2.26925 5.77962
3 -8.87357 -3.05014 5.8074
3 -8.80862 -8.8579 11.5845
3 -13.9451 -8.16319 11.5678
1 -11.5869 -5.4881 17.5562
4 -11.5224 -5.74649 22.673
1 -11.5571 -11.3653 17.5178
4 -11.5728 0.152973 22.7171
2 -14.2308 -8.4663 14.4659
2 -14.2932 -2.74468 14.4882
2 -14.3868 -8.51965 20.3396
2 -14.4277 -2.75516 20.4002
3 -14.9109 -5.61355 14.6224
3 -11.3646 -7.92997 14.8127
3 -14.4167 -5.63415 20.1826
3 -11.5082 -8.49261 19.9867
3 -8.66473 -5.66161 20.2457
3 -11.5512 -2.77323 20.3621
3 -14.2589 -2.69777 17.4385
3 -8.80855 -2.92476 17.4397
3 -8.86083 -8.53924 23.2999
3 -14.2165 -8.52548 23.3052
4 -5.92872 -0.0312069 -22.7409
4 -5.73232 5.96282 -22.7755
3 -2.92648 0.0801616 -20.3955
3 -5.83322 2.96535 -20.4829
3 -3.34014 -2.79575 -23.4574
3 -8.63447 -2.78174 -23.3389
1 -5.90111 0.232625 -17.628
1 -5.28745 -0.157463 -11.6839
1 -5.80716 -5.59148 -17.5859
1 -5.56082 5.34685 -11.6632
2 -8.65986 -2.77738 -20.3837
2 -8.71447 2.98151 -20.4592
2 -8.51749 -2.79371 -14.5315
2 -8.61278 2.93083 -14.5642
3 -8.73851 0.103156 -20.1783
3 -5.77758 -2.75044 -20.0731
3 -2.29866 0.0275576 -9.04642
3 -5.76347 2.36898 -9.06317
3 -9.20614 0.0665151 -14.8008
3 -5.65035 -2.22485 -14.8923
3 -2.2377 -0.00398216 -14.3961
3 -5.72799 2.34283 -14.3426
3 -8.4697 3.11964 -17.5006
3 -3.10747 2.75743 -17.4966
3 -3.0426 -3.11921 -11.6747
3 -8.26735 -2.47564 -11.6281
1 -6.15522 0.305218 -5.81218