2961
 Atoms. Timestep: 110552
4 -24.0833 24.7683 -18.6941
4 -24.3762 24.0985 -5.66925
4 -24.8909 24.5968 5.95382
4 -24.9607 24.1827 18.6887
4 -24.849 18.7803 -24.5121
3 -21.8784 18.6618 -21.9709
3 -25.2835 21.4911 -21.4503
3 -22.1212 15.3521 -25.2569
4 -24.0805 18.7291 -18.5947
4 -24.6846 18.6322 -12.0235
4 -24.744 12.5651 -18.5633
4 -24.7168 23.9501 -12.4304
3 -25.4242 15.5453 -22.0073
3 -21.5351 18.7886 -9.24493
3 -25.031 21.7041 -9.25199
3 -24.9785 15.8557 -15.3933
3 -21.1381 18.6666 -15.8103
3 -25.1142 21.6259 -15.8351
3 -21.3898 21.7298 -18.8895
3 -21.6608 15.4988 -12.5611
4 -24.6804 18.4281 -6.85534
4 -24.5933 18.6193 -0.112889
4 -24.4826 12.2949 -6.64273
4 -25.0192 24.2611 -0.570828
3 -25.2584 15.2243 -9.5257
3 -21.8145 18.9338 3.12741
3 -25.3972 21.7881 2.88107
3 -25.0441 16.0361 -2.99959
3 -21.4221 18.6303 -3.18556
3 -25.4215 21.1443 -3.37546
3 -21.4917 21.7074 -6.35831
3 -21.545 15.8025 0.215971
4 -24.2492 18.4328 6.22578
4 -24.3185 18.632 12.6902
4 -25.0166 12.1366 6.02259
4 -25.5111 23.9185 12.5988
3 -25.3121 15.2211 2.75728
3 -20.9918 18.8546 16.0066
3 -25.3763 21.2517 15.2647
3 -25.4696 16.0289 9.68598
3 -21.5645 18.5609 9.14775
3 -25.1338 21.7682 9.34844
3 -22.1049 21.797 6.21714
3 -21.5696 15.7528 12.5095
4 -24.6487 18.507 18.5493
4 -24.6152 18.7455 24.3993
4 -24.5718 12.2138 18.5351
3 -24.9163 15.8885 15.313
3 -25.456 15.5759 21.6096
3 -21.8481 18.7736 21.7091
3 -25.5598 21.6755 21.9135
3 -21.9573 21.7683 18.6872
3 -21.9877 15.5242 25.1299
4 -18.6445 24.3033 -24.821
3 -15.642 25.4904 -22.1898
3 -15.389 22.2696 -25.4736
3 -21.8477 21.1797 -25.2958
4 -18.5043 24.395 -18.6509
4 -17.9179 24.7128 -12.9475
1 -18.6514 18.5123 -19.212
2 -21.9692 21.9157 -22.0431
2 -21.9181 21.718 -15.6791
3 -21.4778 25.287 -21.8537
3 -18.681 21.4585 -22.2052
3 -16.0287 25.1683 -9.72302
3 -21.9015 24.9048 -15.5254
3 -18.5286 22.0548 -15.8506
3 -15.0118 25.2286 -15.5185
3 -15.2016 21.5373 -12.6076
3 -21.7632 21.4813 -12.5958
4 -18.3585 24.6208 -6.76201
4 -19.1871 24.9001 0.151951
1 -18.4978 18.4156 -6.27902
2 -21.7253 21.9769 -9.53411
2 -21.6767 21.8107 -3.01564
3 -22.1515 25.2846 -8.94519
3 -18.6394 22.096 -9.79375
3 -15.223 25.4252 3.15827
3 -22.0178 25.1294 -2.69787
3 -18.584 22.2177 -3.1548
3 -15.1504 25.2806 -3.05231
3 -15.7638 22.0088 -0.0658246
3 -21.9529 21.8406 0.0401256
4 -18.9725 24.5311 6.35411
4 -18.933 24.9835 12.1608
1 -18.6725 18.8634 6.12703
2 -22.096 22.2937 3.01369
2 -21.8427 21.9389 9.26511
3 -22.9093 25.3 2.3401
3 -18.8784 22.355 3.19075
3 -15.0977 25.3795 15.892
3 -21.8841 25.211 9.17145
3 -18.7874 21.5679 8.96244
3 -15.6566 25.3111 9.45943
3 -15.8326 21.8137 12.4199
3 -21.7558 21.5399 12.3458
4 -18.5522 24.7376 18.9461
4 -18.7211 24.6651 24.8598
1 -18.7506 18.8521 19.1655
2 -22.0809 21.7341 15.3935
2 -22.2512 22.252 21.9416
3 -22.6635 25.121 14.8195
3 -18.8027 22.4997 15.4876
3 -21.8019 25.4008 21.634
3 -19.0398 21.8896 21.8638
3 -15.465 25.027 21.9331
3 -15.9433 21.4482 25.167
3 -21.5072 21.6082 24.9783
4 -12.6555 24.3861 -18.8371
4 -12.6041 24.2675 -5.96566
4 -12.6196 24.6309 6.52734
4 -12.4307 24.5093 18.7964
4 -25.2481 6.15001 -23.9483
4 -24.8668 12.4335 -24.5546
3 -22.3862 6.0277 -21.4673
3 -25.1762 9.38038 -21.3359
3 -22.6048 3.25156 -24.9754
4 -24.9247 6.34866 -18.087
4 -24.288 5.90349 -12.3842
4 -25.0035 -0.347167 -18.4187
4 -24.4757 12.4992 -12.507
3 -25.4168 2.93122 -21.8711
3 -21.1314 6.07949 -9.33095
3 -24.9304 8.89009 -9.31245
3 -25.4725 3.40825 -15.4133
3 -21.6963 6.07572 -15.5506
3 -25.0048 9.66413 -15.6835
3 -21.7406 9.32524 -18.6107
3 -21.4927 3.11271 -12.6162
4 -24.2621 6.26774 -6.28423
4 -24.1347 6.09779 -0.612738
4 -24.7138 -0.00697944 -6.6128
4 -24.6754 12.5456 -0.0495742
3 -24.8935 3.39104 -9.36517
3 -21.2472 6.23791 2.99868
3 -25.2616 9.10313 3.35276
3 -25.0707 3.71519 -3.32926
3 -20.9763 6.28413 -3.23302
3 -24.8224 8.74199 -3.4772
3 -21.0339 8.96814 -6.40916
3 -21.5712 3.06819 -0.0193884
4 -24.9196 6.08248 6.83154
4 -24.5035 6.18051 12.601
4 -24.4384 -0.260252 6.58375
4 -24.9637 12.7394 12.5763
3 -25.0916 3.82625 2.83336
3 -21.7283 6.31964 15.7752
3 -25.4027 9.44713 15.712
3 -25.1686 3.38024 9.87001
3 -21.4875 6.23247 9.3629
3 -25.2459 9.0825 9.73643
3 -22.2931 9.26538 6.40131
3 -21.7701 3.07906 12.3965
4 -24.7032 5.83793 18.6732
4 -25.1449 5.93231 24.3301
4 -24.5017 -0.0415779 18.913
4 -24.9621 12.5464 24.242
3 -25.5001 3.51131 15.6106
3 -25.3442 2.99674 22.008
3 -22.2367 6.2429 21.8868
3 -25.5003 9.32617 21.8473
3 -22.1529 9.33366 18.7665
3 -21.964 3.27743 25.1608
4 -18.6076 12.4951 -24.7984
4 -18.7825 18.5085 -24.6696
3 -15.9773 12.6251 -21.7866
3 -18.945 15.6782 -22.0369
3 -14.8389 9.60106 -25.559
3 -22.7645 9.14415 -25.1693
1 -18.7259 12.3488 -18.7503
1 -18.5065 12.276 -12.6151
1 -18.8172 6.2614 -18.6706
1 -18.5959 18.8287 -12.5767
2 -21.9872 9.09938 -21.777
2 -22.0996 15.466 -22.0197
2 -21.6536 9.20212 -15.5799
2 -21.9449 15.6005 -15.7715
3 -21.998 12.2638 -21.7744
3 -18.8707 9.0081 -22.2847
3 -15.3961 12.47 -9.7912
3 -18.8382 15.4859 -9.62228
3 -21.9486 12.5133 -15.5401
3 -18.5081 9.61071 -15.7994
3 -14.6616 12.4006 -15.9391
3 -18.5649 15.0461 -15.9648
3 -21.7254 15.5829 -18.8734
3 -14.9009 15.7828 -18.8214
3 -14.7604 9.35493 -12.9271
3 -21.8835 9.38983 -12.4395
1 -18.7815 12.1844 -6.58818
1 -18.6729 12.4184 0.306003
1 -18.6093 5.69759 -6.17176
1 -18.719 18.7047 0.397631
2 -21.6579 9.2476 -9.48019
2 -21.8743 15.8164 -9.41628
2 -21.6987 9.24434 -3.18855
2 -21.9159 15.5526 -2.92065
3 -21.5109 12.3901 -9.2556
3 -18.3889 9.58757 -9.76004
3 -15.1693 12.5722 2.95469
3 -18.8785 15.7009 3.81533
3 -22.2426 12.4381 -3.48416
3 -18.508 10.222 -3.07386
3 -14.7169 12.2338 -3.40377
3 -18.6639 14.6363 -3.31775
3 -21.704 15.73 -6.19861
3 -15.6718 15.4473 -6.35167
3 -15.4151 9.53489 0.0119928
3 -21.7145 9.50772 0.0273325
1 -18.8847 12.4335 6.37957
1 -19.0129 12.4978 12.323
1 -18.672 6.08998 6.50177
1 -18.6558 18.6188 12.5975
2 -21.9841 9.47308 3.17036
2 -22.155 15.7515 3.49517
2 -22.174 9.34571 9.51449
2 -22.1922 15.6102 9.38532
3 -21.861 12.6681 3.09215
3 -18.8139 9.9438 3.36335
3 -14.4441 12.3365 15.822
3 -18.6075 14.6964 16.0783
3 -22.2731 12.4766 9.71421
3 -18.8365 9.8124 9.23924
3 -15.1893 12.3552 9.47551
3 -18.7484 15.3555 8.86284
3 -22.4086 15.1102 6.42052
3 -14.9369 15.8975 6.30548
3 -15.8598 9.38233 12.4714
3 -21.7199 9.21491 12.5096
1 -18.8277 12.2763 19.1833
4 -18.6234 12.5842 24.4121
1 -18.7274 5.83425 18.5574
4 -19.0227 18.6362 24.2421
2 -22.1472 9.45017 15.6786
2 -21.5434 15.8617 15.6116
2 -22.2497 9.34846 21.7751
2 -22.1573 15.6179 22.0287
3 -22.03 12.6664 15.4212
3 -18.8396 9.93637 15.5984
3 -21.8591 12.4599 21.8538
3 -18.9421 9.40561 21.9815
3 -15.8295 12.3498 21.7495
3 -18.9315 15.5103 21.7889
3 -22.2648 15.3459 18.7773
3 -15.3145 15.4983 18.8765
3 -15.1623 9.83151 25.0692
3 -22.0763 8.83607 25.105
4 -13.1666 18.3858 -25.3454
4 -12.4291 24.8519 -24.7951
3 -9.09436 18.6979 -22.3431
3 -12.337 21.8105 -22.2614
3 -9.01389 15.3115 -25.4045
3 -15.7379 15.5772 -25.2443
1 -12.5761 18.9861 -19.1166
1 -12.4313 18.7783 -12.1331
1 -12.4256 12.9035 -19.3316
4 -12.5264 24.5444 -12.5161
2 -15.7995 15.6226 -21.8574
2 -15.4663 22.1424 -22.281
2 -15.3193 15.5269 -15.735
2 -15.6033 21.8298 -15.5702
3 -15.7167 18.9255 -22.0672
3 -12.4851 15.7784 -22.3372
3 -9.36365 18.8935 -9.36156
3 -12.4876 21.5558 -9.17207
3 -15.9892 18.6617 -15.8913
3 -12.4227 16.1402 -15.0971
3 -8.64573 18.9783 -15.55
3 -12.4391 20.9935 -15.8035
3 -15.4451 21.6621 -19.0008
3 -9.3218 21.4094 -19.0461
3 -9.24528 15.7303 -12.6441
3 -16.1105 15.735 -12.7378
1 -12.6577 18.3421 -6.30906
1 -12.1919 18.8229 -0.0451844
1 -12.5974 12.4457 -6.78365
4 -12.4054 24.4549 0.170919
2 -15.7448 15.4794 -9.38807
2 -15.5862 21.8908 -9.50399
2 -15.4735 15.3283 -3.00909
2 -15.5669 21.7406 -3.35235
3 -15.884 18.5795 -9.55105
3 -12.5054 15.6785 -9.76782
3 -9.19928 18.8125 3.27865
3 -12.5322 21.7955 3.20308
3 -16.2046 18.4577 -2.48366
3 -12.5009 16.2069 -3.02387
3 -9.16474 18.5898 -2.90175
3 -12.5131 21.3558 -3.34641
3 -16.1283 21.2215 -6.34047
3 -9.39301 21.6086 -6.13468
3 -8.81971 15.1003 0.0382562
3 -16.0357 15.4805 0.0894694
1 -12.4848 18.9327 6.37221
1 -12.4399 18.7999 12.2668
1 -12.527 12.7411 6.28864
4 -12.839 24.3841 12.7168
2 -15.7986 15.8856 3.27901
2 -15.65 22.2682 2.90708
2 -15.7701 15.4686 9.42563
2 -15.5669 22.1893 9.21289
3 -15.7826 19.0353 2.95345
3 -12.5813 16.1605 2.78458
3 -8.85993 18.9461 15.9358
3 -12.6985 21.1029 15.8271
3 -15.749 18.7412 9.53892
3 -12.5059 15.6693 10.1203
3 -9.16412 18.7968 9.64709
3 -12.4603 21.747 9.29904
3 -15.7291 21.9525 6.06855
3 -9.36528 21.9656 6.20636
3 -8.86654 15.3911 12.7764
3 -16.3594 15.3081 12.5173
1 -12.4582 18.3227 18.9822
4 -12.0241 18.6325 24.6085
1 -12.3499 12.6379 19.092
4 -12.4526 23.9395 24.6019
2 -15.5996 15.1898 15.759
2 -15.5248 21.9244 15.5057
2 -15.5437 15.5562 22.0355
2 -15.8108 21.761 21.8624
3 -16.409 18.6359 15.617
3 -12.7589 16.4362 15.0804
3 -15.891 18.6987 21.698
3 -12.4939 15.4767 22.3247
3 -9.46575 18.7435 21.7011
3 -12.3779 21.6216 21.5684
3 -15.6097 21.7296 18.5662
3 -9.37865 21.8494 18.7332
3 -8.714 15.9525 25.269
3 -15.7692 15.8615 25.2643
4 -6.5304 24.5218 -25.1135
3 -3.59114 25.163 -22.5206
3 -2.3631 21.6937 -25.5007
3 -9.46672 22.3349 -25.6948
4 -6.29198 24.3693 -18.6742
4 -6.20727 24.7541 -12.3817
1 -5.97292 18.6584 -18.8034
2 -9.22064 21.8541 -22.2031
2 -9.39566 21.9294 -15.7087
3 -9.55362 25.0175 -22.0989
3 -6.1904 21.5646 -22.0726
3 -2.91423 24.9976 -9.59803
3 -10.2005 24.9742 -15.6476
3 -6.29988 22.1317 -15.4448
3 -3.25277 24.8804 -15.4104
3 -3.14053 21.328 -12.4649
3 -9.42338 22.0278 -12.5164
4 -6.6058 24.6267 -5.98929
4 -6.12329 24.6063 0.0406396
1 -6.22139 18.6903 -6.03456
2 -9.51244 22.1627 -9.37428
2 -9.47024 21.8249 -3.06379
3 -10.2137 25.2346 -9.28419
3 -6.4994 22.2963 -9.19787
3 -2.50785 24.791 3.34821
3 -9.33085 25.2404 -2.7668
3 -6.44226 22.0966 -2.72238
3 -2.93452 25.2748 -2.76559
3 -2.889 21.5363 -0.0743371
3 -9.55128 21.5454 0.109759
4 -6.19858 24.6916 6.1095
4 -6.05074 24.7515 12.9643
1 -6.23221 18.8774 6.24308
2 -9.33101 22.0594 3.08933
2 -9.32131 21.9069 9.29322
3 -9.2834 25.2807 2.92487
3 -6.34359 22.1876 3.16098
3 -3.09008 24.8907 15.6331
3 -9.60921 25.2279 9.62842
3 -6.14935 21.9927 9.44998
3 -2.75273 25.2328 8.9906
3 -3.05745 21.9086 12.5766
3 -9.73024 22.0606 12.4131
4 -6.07748 24.4901 18.4537
4 -6.06026 24.5201 24.774
1 -6.07627 18.908 18.7072
2 -9.5806 22.1001 15.7001
2 -9.16722 21.8433 21.9599
3 -9.2786 25.1697 15.5675
3 -6.34966 21.7706 15.5475
3 -9.27623 25.1043 22.1576
3 -5.99144 21.6646 22.0263
3 -3.38323 25.1063 21.6626
3 -2.82644 22.1923 25.6621
3 -8.88366 21.8942 25.283
4 -0.424197 24.6654 -18.894
4 -0.341926 24.4778 -6.67854
4 0.304923 24.2062 6.45883
4 -0.0471928 24.44 18.437
4 -24.7499 -6.45389 -24.7925
4 -24.7241 0.13885 -24.7639
3 -22.1977 -6.1037 -21.9779
3 -25.3215 -2.67988 -22.1925
3 -21.9426 -9.40713 -25.1919
4 -24.27 -5.9581 -18.6945
4 -24.3684 -6.09443 -12.7304
4 -24.6123 -12.7319 -18.9973
4 -24.2707 0.148036 -12.3455
3 -25.2148 -9.50659 -22.2394
3 -21.9006 -6.40993 -9.63643
3 -25.083 -3.18734 -9.36699
3 -25.3499 -9.11706 -15.7624
3 -21.6763 -6.30704 -15.7127
3 -25.0492 -3.11192 -15.6127
3 -21.656 -3.06184 -18.8547
3 -21.933 -9.34322 -12.5589
4 -24.2084 -6.13846 -6.20071
4 -24.6572 -6.00693 -0.244889
4 -24.4408 -12.2349 -5.87424
4 -24.6258 0.759635 0.0455423
3 -25.715 -9.08807 -10.0575
3 -21.8541 -6.06437 3.10173
3 -25.4029 -3.31555 3.09079
3 -24.7056 -9.20666 -3.5126
3 -21.4796 -6.14721 -3.06639
3 -25.1524 -3.46843 -3.48185
3 -21.6438 -3.1091 -6.42
3 -22.2556 -9.1653 0.088044
4 -25.206 -6.2529 5.78991
4 -24.3361 -5.94478 12.4426
4 -24.6308 -12.2978 6.01289
4 -24.3243 0.20816 12.1907
3 -25.412 -9.53868 3.13463
3 -21.1976 -6.20944 15.8334
3 -25.2929 -3.32573 16.003
3 -25.0279 -9.15437 9.42599
3 -21.1558 -6.30257 9.43933
3 -24.7855 -3.18957 9.44229
3 -21.8329 -3.40087 6.00236
3 -21.3896 -9.44489 12.497
4 -24.2914 -6.26453 18.61
4 -24.7135 -6.47822 24.4828
4 -25.0013 -12.203 18.8193
4 -25.2505 0.254483 24.8112
3 -24.9879 -8.9837 15.1934
3 -25.2743 -9.23415 21.6527
3 -22.2004 -6.36211 21.746
3 -25.6251 -3.2283 22.4933
3 -21.6435 -2.95391 19.1339
3 -21.9616 -9.57795 25.1427
4 -18.7736 -0.119741 -24.3979
4 -19.4893 5.80418 -24.6661
3 -15.8559 0.193321 -21.4972
3 -18.949 3.20854 -21.8201
3 -15.5196 -2.49646 -25.4337
3 -22.0592 -2.79094 -25.3917
1 -18.5744 -0.0469959 -18.8022
1 -18.7266 0.135258 -12.3917
1 -19.213 -6.70046 -18.7791
1 -18.5478 6.34429 -12.3035
2 -22.0881 -3.10719 -21.9506
2 -22.2714 2.95051 -21.8293
2 -21.7136 -3.22893 -15.7183
2 -22.2862 3.25158 -15.631
3 -21.7335 0.0364878 -21.7823
3 -18.7652 -3.40522 -21.7856
3 -14.8324 -0.0276384 -9.09451
3 -18.6186 2.76864 -9.17627
3 -21.8323 0.0516205 -15.3208
3 -18.7197 -2.46767 -15.5822
3 -15.0937 0.042861 -15.8819
3 -19.0474 2.82748 -16.3152
3 -22.5122 2.88294 -18.6305
3 -15.6067 3.61167 -19.1799
3 -15.0236 -2.4139 -12.6094
3 -21.6004 -3.39421 -12.6302
1 -18.4758 -0.246889 -6.35532
1 -18.207 0.249614 0.232181
1 -18.4926 -6.15206 -6.59169
1 -18.5754 6.46717 0.0356818
2 -21.7574 -3.20455 -9.55917
2 -21.7234 3.07406 -9.2964
2 -21.953 -2.90256 -3.3056
2 -21.6547 3.08209 -3.30433
3 -22.0132 -0.137291 -9.24828
3 -18.5301 -2.6416 -9.562
3 -15.1642 0.080608 3.20918
3 -18.6265 2.68526 3.54393
3 -22.4797 0.150993 -3.32864
3 -18.6413 -2.25582 -2.99723
3 -14.5625 0.113033 -2.98445
3 -18.4844 2.23161 -3.45801
3 -21.5654 2.73605 -6.2296
3 -15.1707 2.85191 -6.08815
3 -14.7471 -2.55552 0.0540902
3 -22.3039 -2.57343 -0.314102
1 -18.6823 0.223663 6.52449
1 -19.0073 -0.203442 12.5125
1 -18.6376 -6.17551 6.15382
1 -18.7492 6.08698 12.5561
2 -22.043 -3.0317 2.75627
2 -22.0001 3.28782 3.1362
2 -21.6285 -3.22166 9.28228
2 -21.9987 3.25287 9.2581
3 -21.7623 0.0660948 3.4898
3 -18.9022 -3.34681 2.56835
3 -14.7718 -0.237 15.7927
3 -18.8667 2.60238 16.0402
3 -21.7424 0.0319909 9.09062
3 -18.6486 -2.56496 9.38707
3 -15.2537 0.0540484 9.64213
3 -18.7298 3.05467 9.16689
3 -21.9537 3.01479 6.25912
3 -15.5199 3.0737 6.42213
3 -15.5583 -3.03671 12.7093
3 -21.6349 -3.27255 12.48
1 -18.5081 -0.471641 19.1147
4 -19.2995 0.198054 24.935
1 -18.8289 -6.47369 19.2564
4 -19.1862 6.00052 24.4723
2 -21.7887 -3.07364 15.8089
2 -22.3417 3.09696 15.6761
2 -22.3284 -3.24074 22.1895
2 -22.0771 3.09221 21.9417
3 -22.5666 0.00878679 15.6045
3 -18.5239 -2.40447 15.6714
3 -21.8298 -0.1288 21.9566
3 -19.0962 -3.38245 22.5814
3 -15.5245 -0.167579 21.7899
3 -18.7884 2.70711 21.7911
3 -22.0685 3.13411 18.8369
3 -15.7368 2.80703 18.8551
3 -16.0015 -3.078 25.5778
3 -22.5203 -2.73386 25.4185
4 -12.4869 5.94176 -25.2905
4 -12.4671 12.4569 -24.6235
3 -9.56094 6.27507 -22.2338
3 -12.4621 9.55722 -21.3434
3 -9.37439 3.05156 -25.5687
3 -15.6201 3.08635 -25.557
1 -12.7788 6.00035 -19.1107
1 -11.9576 6.47073 -12.7002
1 -12.7934 0.153419 -19.0984
1 -12.3818 12.6832 -12.6545
2 -15.8378 3.29139 -22.2868
2 -15.6282 9.50146 -22.3574
2 -15.6782 3.17783 -15.9478
2 -15.5091 9.09783 -15.9504
3 -15.617 6.37486 -22.7019
3 -12.6135 2.99232 -22.2059
3 -8.68356 6.31657 -10.0065
3 -12.0855 9.02867 -9.31961
3 -16.4687 6.17029 -15.6443
3 -12.5441 3.91308 -15.8353
3 -8.8895 6.27542 -15.4921
3 -12.3604 8.69707 -16.3091
3 -15.9726 8.88612 -19.2633
3 -8.76519 8.93344 -19.0379
3 -9.30006 2.93511 -12.7211
3 -15.7954 2.99777 -12.7743
1 -12.7345 6.2611 -6.43498
1 -11.8387 6.45298 0.318775
1 -12.2157 -0.378167 -6.32066
1 -12.3455 12.97 0.186997
2 -15.2344 3.00639 -9.47507
2 -15.1685 9.16131 -9.5718
2 -15.5218 3.16939 -2.91677
2 -15.2807 9.30776 -3.2374
3 -15.4828 6.18783 -9.49357
3 -12.2771 3.86294 -9.98857
3 -8.81728 6.27807 3.45776
3 -12.3787 8.56598 3.52242
3 -15.9848 6.19164 -3.22962
3 -12.4485 3.88241 -2.71872
3 -8.42473 6.50222 -3.07068
3 -12.2102 8.46031 -2.95339
3 -15.4716 9.32993 -6.55304
3 -9.01389 9.03655 -6.49774
3 -9.28867 3.52913 0.181051
3 -15.6949 3.37521 0.337097
1 -12.8919 6.21989 6.35533
1 -12.9744 6.46538 12.3481
1 -12.3727 -0.0700087 6.18691
1 -12.3682 12.4826 12.2704
2 -15.4987 3.17352 3.38271
2 -15.56 9.38266 3.14503
2 -15.6022 3.2484 9.54546
2 -15.7378 9.36786 9.39284
3 -16.2897 6.25595 3.51373
3 -12.6433 3.77211 2.90423
3 -8.44532 6.50835 15.8139
3 -12.5407 8.74039 15.8814
3 -16.0255 6.26945 9.24326
3 -12.6518 3.49325 10.1214
3 -8.98854 6.17727 9.30033
3 -12.4973 8.84451 9.28573
3 -15.4085 9.5745 6.36878
3 -9.17394 9.46895 6.21001
3 -9.47754 3.60385 12.6504
3 -15.9428 3.19338 12.6391
1 -12.7816 6.06808 19.1975
4 -12.8717 5.8467 24.9067
1 -12.1625 -0.0392395 19.04
4 -12.3657 12.3673 25.0475
2 -15.6336 2.91351 15.7023
2 -15.6725 9.50743 15.6648
2 -15.7093 3.00138 22.1791
2 -15.8696 9.1839 21.9391
3 -16.1079 6.2577 15.4842
3 -12.5526 3.54559 15.5335
3 -16.1946 5.99847 21.8228
3 -12.6909 3.17407 22.0249
3 -9.18346 6.31196 21.5513
3 -12.674 8.94192 21.91
3 -16.0685 8.91918 18.8726
3 -9.62536 9.95746 19.1595
3 -9.71462 3.20142 25.2882
3 -16.1072 3.05647 25.3785
4 -5.49722 13.1399 -25.3752
4 -5.79098 18.5663 -24.7644
3 -2.92141 12.6806 -21.6396
3 -6.06599 15.5965 -21.9556
3 -2.71327 10.1022 -25.5454
3 -10.1843 9.0994 -25.3796
1 -6.3201 12.1324 -19.0403
1 -6.70244 12.874 -13.0576
1 -6.50942 5.85756 -19.1054
1 -6.34897 18.5476 -12.1992
2 -9.31023 9.31561 -22.1802
2 -9.18749 15.6178 -22.2401
2 -9.18447 9.27744 -16.0898
2 -9.29821 15.9385 -16.0034
3 -9.47173 12.4101 -21.8565
3 -6.36061 9.70106 -23.2931
3 -1.9473 12.2658 -9.64741
3 -6.15582 15.0162 -9.53573
3 -9.65578 12.5886 -16.0525
3 -6.20705 9.9718 -15.4472
3 -2.28938 12.341 -16.0403
3 -6.2534 15.1382 -16.3257
3 -9.576 15.7953 -19.109
3 -2.86025 15.6872 -18.8427
3 -2.8492 9.39157 -12.9266
3 -9.63363 9.85959 -12.8907
1 -6.10065 12.2898 -6.73095
1 -5.67596 12.448 0.286401
1 -6.1876 5.91028 -6.33199
1 -6.53046 18.8814 -0.05367
2 -9.13906 9.3829 -9.75819
2 -9.15349 15.8158 -9.56644
2 -9.05213 9.7002 -3.33663
2 -9.28451 15.3834 -3.15506
3 -9.68262 12.6452 -9.76861
3 -6.07552 10.1485 -10.059
3 -2.57086 12.521 3.52575
3 -6.20826 14.6856 3.43488
3 -10.5851 12.4863 -3.18088
3 -6.06864 10.3541 -3.10849
3 -2.21695 12.3895 -3.24406
3 -5.98246 14.4641 -3.2767
3 -9.29107 15.5871 -6.3298
3 -2.59446 15.413 -6.23797
3 -3.11807 9.37363 -0.0724944
3 -9.26663 9.74474 -0.230195
1 -5.99852 12.1326 6.49656
1 -6.41978 12.5941 12.507
1 -5.89477 6.06032 6.64979
1 -6.37145 18.8279 12.6174
2 -9.45701 9.38451 2.93838
2 -9.21754 15.6652 3.2362
2 -9.39644 9.29904 9.41345
2 -9.4539 15.6338 9.62879
3 -9.96394 12.4595 3.16893
3 -6.25568 9.74474 3.15538
3 -2.49023 12.2913 16.186
3 -6.07405 15.2309 16.5321
3 -9.88165 12.5141 9.15679
3 -6.36932 9.42192 9.63755
3 -3.00828 12.5486 8.94336
3 -6.29054 15.1763 9.4396
3 -9.66904 15.7583 6.33032
3 -2.95391 16.0135 6.51446
3 -3.47847 9.88991 12.7051
3 -9.44049 9.24082 12.4707
1 -5.82225 12.2179 19.0712
4 -5.94038 12.846 24.8
1 -6.30892 5.88566 18.8652
4 -5.9934 18.9265 25.2053
2 -9.41318 9.43357 16.0324
2 -9.37016 15.6943 15.8297
2 -9.41227 9.45766 22.4211
2 -9.4546 15.5328 22.227
3 -10.1085 12.5871 15.5453
3 -6.48366 10.6136 15.7557
3 -9.60592 12.4755 22.5033
3 -6.25014 9.4276 21.9382
3 -3.04118 12.4063 22.0701
3 -6.18302 15.751 21.4545
3 -9.67021 15.4159 19.0253
3 -2.51336 16.1019 19.2249
3 -2.9363 9.07255 25.197
3 -9.86389 8.73995 25.4821
4 0.334134 18.5945 -24.5702
4 -0.259461 24.7225 -24.605
3 3.10712 18.8533 -21.7329
3 0.0547335 21.8564 -22.0584
3 3.13123 15.7356 -25.2721
3 -2.85595 15.9757 -25.042
1 0.208923 18.5064 -18.8538
1 0.319629 18.9307 -12.7915
1 0.0107454 12.2976 -19.2758
4 -0.234053 23.9926 -13.1275
2 -2.99721 15.7191 -21.9535
2 -2.94228 22.0178 -21.9292
2 -3.21815 15.3275 -15.8019
2 -3.25617 21.5035 -15.6634
3 -2.75061 18.777 -21.9461
3 0.26338 15.452 -22.0376
3 3.6193 18.8968 -9.21134
3 0.0129124 21.5712 -9.51254
3 -3.77465 18.5117 -15.6614
3 -0.0221727 16.1256 -15.7698
3 3.26216 18.8171 -15.6417
3 -0.23134 21.2474 -15.9269
3 -3.27344 21.6035 -18.8842
3 2.79195 21.7401 -18.8816
3 3.47102 15.3949 -12.805
3 -3.33783 15.4491 -12.67
1 -0.264478 18.8788 -6.49674
1 -0.365184 18.6629 0.112298
1 0.340116 12.1765 -6.34537
4 -0.180448 24.6079 0.163912
2 -2.82704 15.3934 -9.53383
2 -3.14582 21.9278 -9.24284
2 -2.9641 15.3955 -2.98218
2 -3.35288 22.1411 -3.04714
3 -3.38915 18.7177 -9.01676
3 0.0812635 16.2696 -9.90909
3 3.87263 18.4917 3.19703
3 -0.0212676 21.1683 3.08483
3 -3.65122 18.6046 -3.10948
3 -0.0755069 16.4703 -3.10631
3 3.53902 18.5374 -3.46375
3 -0.136128 21.5207 -3.24726
3 -3.67167 22.1322 -6.09609
3 2.83751 22.367 -6.37711
3 3.00881 15.6027 -0.042469
3 -3.06819 15.4734 0.290286
1 0.330395 18.7536 6.69949
1 -0.0956891 18.8891 12.376
1 0.305302 12.1667 6.23024
4 0.28466 24.4525 11.9523
2 -3.10137 15.5758 3.42217
2 -3.14505 21.6588 3.00338
2 -3.16792 15.5657 9.73185
2 -3.06923 21.8825 9.39718
3 -4.02804 18.5552 2.85945
3 0.0481969 16.1315 3.43785
3 3.66314 18.509 16.0368
3 0.0870136 21.5241 15.7253
3 -3.2756 18.6661 10.0155
3 0.0456996 16.0911 9.7575
3 3.53318 18.6298 9.32385
3 0.107037 21.4463 9.4768
3 -3.14963 21.4785 6.28253
3 3.27756 21.521 6.29265
3 3.24763 15.9784 12.6247
3 -3.56682 15.3835 12.8933
1 0.509065 18.6736 18.6764
4 0.0575381 18.9824 24.9661
1 -0.08413 12.4001 18.8916
4 0.293692 25.009 24.5021
2 -3.05775 15.4372 16.0714
2 -3.19375 21.8008 15.7633
2 -3.16365 15.6974 22.3526
2 -2.97878 21.948 22.0458
3 -3.63107 18.633 15.6284
3 0.172224 16.1658 15.8746
3 -3.10574 18.8538 22.7486
3 0.124458 15.1895 22.272
3 3.03104 18.7978 21.9711
3 -0.0172271 21.7851 22.1673
3 -3.0188 21.7061 18.8712
3 2.89833 21.8207 18.774
3 3.3916 16.2046 25.6818
3 -2.80807 15.2043 25.8567
4 6.21526 24.6821 -24.1759
3 9.50632 25.1581 -22.3069
3 9.59892 21.6527 -25.1036
3 3.04193 22.0407 -25.0694
4 6.24875 24.9539 -18.4239
4 6.32854 24.4096 -13.0821
1 6.08481 18.6946 -18.7796
2 3.17843 22.2558 -22.0514
2 2.85789 22.121 -15.6919
3 2.34398 25.5398 -21.7138
3 6.16792 22.0711 -21.3839
3 9.91737 25.3345 -9.4689
3 2.69018 25.2336 -16.3035
3 6.11797 21.8761 -15.9914
3 9.37392 25.0809 -15.8313
3 9.0896 21.6178 -12.5731
3 3.2741 21.9112 -12.6112
4 5.35778 24.9692 -6.02715
4 5.9287 24.384 0.0690217
1 6.29751 18.8268 -6.24245
2 3.30316 22.0566 -9.46589
2 2.93102 21.8633 -3.35036
3 2.45165 25.2734 -9.89691
3 6.30777 23.2841 -9.31464
3 9.95943 25.0716 3.19574
3 2.674 25.0509 -2.77004
3 6.10658 21.8177 -3.13414
3 9.9712 25.3313 -3.10912
3 9.51533 21.4224 -0.0153166
3 2.94806 21.5353 -0.0828772
4 6.0747 24.3363 6.13955
4 5.9955 24.7874 12.8709
1 6.26801 18.7633 6.43918
2 3.11533 21.5587 3.09276
2 3.27562 21.7449 9.53354
3 2.68104 24.7379 3.07004
3 6.288 21.8018 3.05331
3 9.81246 25.06 15.4041
3 3.03613 25.0389 8.84742
3 6.26372 22.0979 9.45046
3 10.2904 25.013 9.75342
3 9.44293 21.801 12.501
3 3.24573 21.4599 12.7195
4 6.1434 24.7352 18.5181
4 6.56529 24.9923 24.0056
1 6.29112 18.5987 19.1421
2 3.06006 21.638 15.9347
2 3.19036 21.8555 21.8098
3 3.01659 25.0947 15.798
3 6.07272 21.8863 15.8123
3 3.15671 25.0897 21.7039
3 6.38389 21.8694 21.454
3 9.65353 25.5775 21.7335
3 9.94564 22.8994 25.0727
3 3.39014 22.3003 25.0944
4 12.7394 24.6707 -18.2535
4 12.427 24.4304 -6.22826
4 12.652 24.4361 6.51252
4 12.506 24.6213 18.2926
4 -24.854 -19.2261 -24.5179
4 -24.4722 -12.8456 -24.5414
3 -22.111 -19.0484 -21.6266
3 -25.3136 -15.7907 -21.9445
3 -21.8499 -21.4217 -25.0503
4 -24.6591 -19.0043 -18.6898
4 -24.9438 -18.7634 -12.4598
4 -24.8791 -24.7361 -18.8371
4 -24.9657 -12.2262 -12.697
3 -25.7842 -21.8002 -21.6532
3 -21.5222 -18.6953 -9.61544
3 -25.1745 -16.2015 -9.24168
3 -25.5106 -21.8607 -15.9127
3 -22.116 -18.9631 -15.5393
3 -25.3835 -15.6166 -15.5791
3 -21.7901 -15.8733 -18.7121
3 -21.8233 -21.9133 -12.5321
4 -24.4929 -18.8121 -6.60783
4 -24.8455 -18.4436 0.168756
4 -24.523 -24.8507 -6.38792
4 -25.0493 -12.2014 -0.360721
3 -25.2295 -22.5696 -9.72415
3 -21.6095 -18.8279 3.04923
3 -25.2057 -16.2445 3.37567
3 -25.1954 -21.8647 -3.71138
3 -22.4065 -18.524 -3.16408
3 -25.3498 -15.3345 -2.94684
3 -21.7501 -15.3992 -6.38343
3 -21.8248 -21.7531 -0.0478537
4 -24.3869 -18.8188 6.46258
4 -24.4409 -18.6608 12.3756
4 -24.8974 -24.6308 5.99734
4 -24.5823 -11.976 12.7231
3 -25.2325 -21.5603 3.21872
3 -21.5514 -18.6631 15.6234
3 -25.5366 -15.6415 15.895
3 -25.0121 -21.6846 9.81212
3 -21.3233 -18.8971 9.10063
3 -24.9451 -16.2289 9.35884
3 -22.0009 -15.6803 6.15284
3 -22.0861 -22.0763 12.6138
4 -24.6736 -18.4273 18.539
4 -24.6148 -19.0205 24.7474
4 -24.1507 -24.8458 18.7027
4 -24.6397 -12.7557 24.9845
3 -25.3802 -22.2712 15.78
3 -25.3741 -21.7717 21.4683
3 -21.8833 -18.5585 21.9618
3 -25.4786 -15.4636 21.8918
3 -21.9269 -15.7863 18.6356
3 -21.8363 -21.735 25.0914
4 -18.9599 -12.8571 -24.413
4 -18.9653 -6.38289 -24.8703
3 -15.8881 -12.7009 -21.4803
3 -19.065 -9.22779 -21.6447
3 -15.7273 -15.6653 -25.1634
3 -22.158 -16.5051 -25.2178
1 -18.7695 -12.4811 -18.502
1 -19.1014 -12.5571 -12.6661
1 -18.8532 -18.7807 -18.7354
1 -18.7783 -6.62108 -12.2933
2 -22.0696 -16.0319 -21.827
2 -22.0553 -9.28363 -22.0058
2 -22.0382 -15.782 -15.609
2 -22.0912 -9.3393 -15.664
3 -21.8747 -12.5113 -21.6188
3 -19.0507 -16.0394 -21.7992
3 -15.2774 -12.4082 -8.78723
3 -18.809 -9.34005 -9.48417
3 -21.775 -12.4763 -15.6448
3 -18.765 -15.8657 -15.1927
3 -15.7916 -12.4242 -15.8885
3 -18.8912 -9.50828 -15.4765
3 -22.4615 -9.31316 -18.87
3 -15.7981 -8.85361 -19.0615
3 -15.3625 -15.0365 -12.275
3 -22.2158 -15.503 -12.6202
1 -18.6294 -12.476 -6.27413
1 -18.845 -12.2749 0.0403199
1 -18.7923 -18.4802 -6.23005
1 -19.065 -6.38955 0.00553856
2 -21.9834 -15.504 -9.43785
2 -22.1727 -9.47541 -9.48203
2 -22.0174 -15.4962 -3.09175
2 -21.6463 -9.3104 -3.09408
3 -22.58 -12.3627 -9.59008
3 -18.6756 -14.9769 -9.65387
3 -15.4072 -12.5683 3.39257
3 -18.9032 -9.32664 2.78678
3 -21.64 -12.4263 -2.93163
3 -18.7403 -15.9226 -3.02485
3 -15.071 -12.2471 -4.00756
3 -18.6317 -9.46422 -2.64917
3 -21.4524 -9.67544 -6.17787
3 -15.4262 -8.61488 -6.26217
3 -15.6913 -14.8811 -0.0303995
3 -22.0581 -15.5139 -0.12564
1 -18.9171 -12.2108 5.78921
1 -18.6018 -12.3541 12.5304
1 -18.7486 -18.6994 6.12643
1 -18.9216 -6.21589 12.7756
2 -22.1082 -15.7505 2.94679
2 -22.1565 -9.18574 3.237
2 -21.6572 -15.7177 9.28654
2 -21.85 -9.58691 9.39558
3 -21.9926 -12.3752 2.84493
3 -18.6205 -15.428 3.11543
3 -15.0402 -12.4427 16.0619
3 -18.8235 -10.0733 15.5881
3 -22.4556 -12.6861 9.35364
3 -18.5808 -14.7893 9.15628
3 -14.9006 -12.6109 9.35978
3 -18.6503 -10.1001 9.42755
3 -21.8685 -9.28869 6.34893
3 -16.0344 -9.28704 6.22985
3 -15.9817 -15.4379 12.5823
3 -21.559 -15.7821 12.3035
1 -18.9034 -12.519 18.8726
4 -19.0587 -12.5247 24.6286
1 -18.6597 -18.465 18.8841
4 -19.1811 -6.66061 25.1356
2 -22.2435 -15.4887 15.4937
2 -21.8258 -9.29735 15.6411
2 -22.3527 -15.6327 21.8522
2 -22.0281 -9.53606 21.982
3 -22.2387 -12.3356 15.8016
3 -18.9525 -15.2277 15.598
3 -21.9027 -12.5948 21.9008
3 -19.0748 -15.595 21.8439
3 -16.0524 -12.5071 21.7649
3 -18.9933 -9.30609 21.9151
3 -21.8689 -9.36672 18.8519
3 -15.225 -9.47169 18.9826
3 -16.0977 -15.2425 25.6169
3 -22.0884 -15.579 25.0234
4 -12.4731 -6.76203 -24.9415
4 -12.3137 -0.03885 -24.8015
3 -9.2223 -6.29498 -22.6058
3 -12.5971 -3.07202 -22.0056
3 -10.1093 -10.271 -25.5877
3 -15.7619 -10.1134 -25.118
1 -12.4403 -6.20551 -19.0815
1 -12.4231 -6.44027 -12.8527
1 -12.2969 -12.5884 -18.8611
1 -12.3895 0.626754 -12.9072
2 -15.8803 -9.29224 -22.0811
2 -15.7992 -2.9749 -22.1695
2 -15.8207 -9.31765 -15.8382
2 -15.7861 -2.96558 -15.7933
3 -15.8561 -6.2878 -22.6577
3 -12.815 -9.60445 -21.8288
3 -8.92417 -6.20188 -9.52499
3 -12.3733 -4.16554 -9.36221
3 -16.2596 -6.13358 -15.3743
3 -12.5563 -8.83504 -16.0248
3 -9.08286 -6.11675 -15.7148
3 -12.5807 -3.70151 -15.8888
3 -15.7489 -3.30098 -19.0242
3 -9.50501 -3.19562 -19.1044
3 -9.39769 -9.34812 -12.7322
3 -15.4248 -9.54106 -12.5064
1 -12.0425 -6.45581 -6.34498
1 -12.4862 -5.9871 0.0273991
1 -12.0402 -12.2454 -6.29063
1 -12.2471 0.794001 0.353687
2 -15.6023 -9.06576 -9.40951
2 -15.2643 -3.04607 -9.37361
2 -15.4325 -9.02528 -3.21463
2 -15.3293 -2.8078 -3.11073
3 -16.1299 -5.98963 -9.69273
3 -12.4085 -8.86642 -9.30765
3 -9.04169 -6.07525 3.07567
3 -12.4853 -3.35906 3.38087
3 -16.0233 -5.97636 -2.2817
3 -12.3633 -8.87831 -3.09274
3 -8.99113 -5.97045 -2.93514
3 -12.1808 -3.35229 -3.75615
3 -15.643 -3.36461 -6.23038
3 -8.62387 -2.83908 -6.45116
3 -9.4439 -9.07372 0.206711
3 -15.2145 -10.0119 -0.0635278
1 -11.9639 -6.2501 6.30547
1 -12.4741 -6.41519 12.8687
1 -12.3148 -12.4376 6.20455
1 -12.5677 0.528644 12.6997
2 -15.7112 -9.4798 3.05054
2 -15.4646 -3.09856 3.148
2 -15.5514 -9.37367 9.51015
2 -15.5317 -3.32028 9.59792
3 -15.7938 -6.2161 2.9981
3 -12.5741 -9.32061 3.5434
3 -9.03807 -6.17774 16.0171
3 -12.6064 -4.00492 16.168
3 -16.404 -6.39005 9.48713
3 -12.4761 -8.5752 9.59301
3 -8.72488 -6.42323 9.28139
3 -12.4645 -3.89501 9.43159
3 -15.7557 -2.92187 6.47996
3 -9.08404 -3.10567 6.36949
3 -9.0754 -9.20087 12.8802
3 -15.77 -9.44678 12.7854
1 -12.5464 -6.17611 19.2629
4 -12.3952 -6.50238 24.7963
1 -12.4021 -11.9637 19.4023
4 -12.6966 0.0445168 24.8942
2 -15.645 -9.18393 15.8767
2 -15.627 -3.3974 15.7797
2 -15.8285 -9.5704 22.3817
2 -15.9248 -3.12769 22.4162
3 -16.6409 -6.36701 16.1776
3 -12.5706 -8.67951 15.9026
3 -15.7276 -6.25784 22.2959
3 -12.6444 -9.89864 22.5612
3 -9.25469 -6.30511 22.5026
3 -12.7865 -3.19145 22.2912
3 -15.9732 -3.36326 19.0129
3 -9.31901 -3.42779 19.2998
3 -9.39951 -9.13657 25.7938
3 -16.3103 -9.69498 25.6949
4 -5.90189 -0.379262 -24.714
4 -6.74222 6.01102 -24.9709
3 -3.12148 0.0152508 -22.1521
3 -6.3198 2.89916 -22.0789
3 -2.4565 -3.21606 -25.5986
3 -9.94921 -3.29208 -25.5151
1 -6.54421 -0.380278 -19.3422
1 -6.56127 0.259009 -12.9836
1 -6.11326 -6.82187 -19.6622
1 -5.89433 6.99335 -12.668
2 -9.33187 -3.2642 -22.1092
2 -9.40969 2.92121 -22.4582
2 -9.39054 -2.94897 -16.065
2 -9.39866 3.3214 -16.1047
3 -9.38984 -0.140523 -22.0777
3 -6.05409 -3.44961 -22.4828
3 -2.65269 -0.107557 -9.74871
3 -6.32087 2.75765 -8.91497
3 -9.8329 0.111411 -16.4366
3 -6.25767 -2.51307 -15.8126
3 -2.69932 -0.135344 -15.8598
3 -6.30656 2.77864 -16.3242
3 -9.67958 3.20063 -19.153
3 -2.83811 3.42637 -19.1031
3 -2.94428 -3.60579 -12.9027
3 -9.78145 -2.56888 -12.8276
1 -5.60124 -0.303037 -6.16901
1 -6.08376 0.0437079 0.2816
1 -6.54086 -6.24064 -6.21339
1 -6.35267 6.39328 0.149153
2 -9.43664 -3.02463 -9.66793
2 -9.2093 3.2468 -9.37472