2961
 Atoms. Timestep: 552
4 -24.4495 24.2885 -18.7805
4 -24.7628 24.0171 -6.31398
4 -24.7628 24.0171 6.31398
4 -24.4495 24.2885 18.7805
4 -24.4546 18.7024 -24.5404
3 -21.6517 18.6965 -21.8229
3 -25.0881 21.3863 -21.536
3 -21.7703 15.6313 -25.249
4 -24.2126 18.5933 -18.6328
4 -24.1536 18.5595 -12.5695
4 -24.408 12.5354 -18.9475
4 -24.531 24.1162 -12.5777
3 -25.041 15.5276 -21.9454
3 -21.301 18.7261 -9.46323
3 -24.979 21.4104 -9.49029
3 -24.945 15.9219 -15.7165
3 -21.2536 18.6329 -15.7087
3 -24.9246 21.4772 -15.6805
3 -21.5685 21.6488 -18.8172
3 -21.6007 15.4891 -12.5867
4 -24.2054 18.7 -6.3065
4 -24.2486 18.6524 -2.48663e-16
4 -24.6012 12.8558 -6.28262
4 -24.7126 24.0547 7.73216e-16
3 -24.9993 16.0693 -9.30684
3 -21.3274 18.7709 3.11394
3 -25.0209 21.4009 3.14471
3 -25.0393 16.0973 -3.31009
3 -21.3274 18.7709 -3.11394
3 -25.0209 21.4009 -3.14471
3 -21.5861 21.7261 -6.29469
3 -21.8046 15.5448 -3.97332e-16
4 -24.2054 18.7 6.3065
4 -24.1536 18.5595 12.5695
4 -24.6012 12.8558 6.28262
4 -24.531 24.1162 12.5777
3 -25.0393 16.0973 3.31009
3 -21.2536 18.6329 15.7087
3 -24.9246 21.4772 15.6805
3 -24.9993 16.0693 9.30684
3 -21.301 18.7261 9.46323
3 -24.979 21.4104 9.49029
3 -21.5861 21.7261 6.29469
3 -21.6007 15.4891 12.5867
4 -24.2126 18.5933 18.6328
4 -24.4546 18.7024 24.5404
4 -24.408 12.5354 18.9475
3 -24.945 15.9219 15.7165
3 -25.041 15.5276 21.9454
3 -21.6517 18.6965 21.8229
3 -25.0881 21.3863 21.536
3 -21.5685 21.6488 18.8172
3 -21.7703 15.6313 25.249
4 -18.7531 24.4415 -24.5891
3 -15.618 25.0535 -21.9233
3 -15.5902 21.8037 -25.234
3 -21.5123 21.4714 -25.2362
4 -18.4918 24.4319 -18.8664
4 -18.2055 24.5004 -12.6342
1 -18.6454 18.5882 -18.9687
2 -21.9196 21.9025 -22.0298
2 -21.731 21.7911 -15.6897
3 -21.495 25.08 -21.5952
3 -18.7029 21.6561 -21.8711
3 -15.2283 24.9694 -9.56963
3 -21.9965 25.0173 -15.6551
3 -18.6186 22.0874 -15.7196
3 -15.1893 24.8525 -15.6174
3 -15.5477 21.3863 -12.5891
3 -21.4986 21.6404 -12.5715
4 -18.4474 24.6699 -6.33747
4 -18.227 24.625 -1.94572e-15
1 -18.7596 18.7352 -6.29957
2 -21.7961 21.8725 -9.4412
2 -21.8344 21.9143 -3.14057
3 -22.2711 25.056 -9.35387
3 -18.6888 22.233 -9.43196
3 -15.2516 25.0245 3.09916
3 -22.417 25.0791 -3.19429
3 -18.7307 22.3234 -3.17416
3 -15.2516 25.0245 -3.09916
3 -15.6667 21.5009 1.28269e-16
3 -21.5592 21.7369 -3.94398e-16
4 -18.4474 24.6699 6.33747
4 -18.2055 24.5004 12.6342
1 -18.7596 18.7352 6.29957
2 -21.8344 21.9143 3.14057
2 -21.7961 21.8725 9.4412
3 -22.417 25.0791 3.19429
3 -18.7307 22.3234 3.17416
3 -15.1893 24.8525 15.6174
3 -22.2711 25.056 9.35387
3 -18.6888 22.233 9.43196
3 -15.2283 24.9694 9.56963
3 -15.5477 21.3863 12.5891
3 -21.4986 21.6404 12.5715
4 -18.4918 24.4319 18.8664
4 -18.7531 24.4415 24.5891
1 -18.6454 18.5882 18.9687
2 -21.731 21.7911 15.6897
2 -21.9196 21.9025 22.0298
3 -21.9965 25.0173 15.6551
3 -18.6186 22.0874 15.7196
3 -21.495 25.08 21.5952
3 -18.7029 21.6561 21.8711
3 -15.618 25.0535 21.9233
3 -15.5902 21.8037 25.234
3 -21.5123 21.4714 25.2362
4 -12.4758 24.1479 -18.6201
4 -12.5752 24.2362 -6.32063
4 -12.5752 24.2362 6.32063
4 -12.4758 24.1479 18.6201
4 -24.4517 6.32412 -24.4828
4 -24.3769 12.5211 -24.6816
3 -21.6183 6.33571 -21.7995
3 -25.0363 9.51505 -21.9831
3 -21.7879 3.29557 -25.2061
4 -24.0863 6.28334 -18.5262
4 -23.9325 6.26834 -12.5413
4 -24.2775 0.225723 -18.8324
4 -24.4418 12.0743 -12.5727
3 -24.9603 3.17493 -21.8611
3 -21.0638 6.43389 -9.48856
3 -24.8766 9.01009 -9.6773
3 -24.7427 3.55461 -15.6718
3 -20.9443 6.31525 -15.7242
3 -24.7816 8.94373 -15.5094
3 -21.6602 9.4565 -18.8476
3 -21.429 3.16649 -12.5419
4 -24.1812 6.42957 -6.31303
4 -24.051 6.37369 -2.95151e-15
4 -24.4009 0.690109 -6.2629
4 -24.4639 12.1688 -2.42552e-15
3 -24.7464 3.66654 -9.31251
3 -21.1039 6.45653 3.03766
3 -24.9239 9.08689 2.95804
3 -24.7935 3.72432 -3.33622
3 -21.1039 6.45653 -3.03766
3 -24.9239 9.08689 -2.95804
3 -21.7783 9.57933 -6.28863
3 -21.647 3.19731 -1.12351e-15
4 -24.1812 6.42957 6.31303
4 -23.9325 6.26834 12.5413
4 -24.4009 0.690109 6.2629
4 -24.4418 12.0743 12.5727
3 -24.7935 3.72432 3.33622
3 -20.9443 6.31525 15.7242
3 -24.7816 8.94373 15.5094
3 -24.7464 3.66654 9.31251
3 -21.0638 6.43389 9.48856
3 -24.8766 9.01009 9.6773
3 -21.7783 9.57933 6.28863
3 -21.429 3.16649 12.5419
4 -24.0863 6.28334 18.5262
4 -24.4517 6.32412 24.4828
4 -24.2775 0.225723 18.8324
4 -24.3769 12.5211 24.6816
3 -24.7427 3.55461 15.6718
3 -24.9603 3.17493 21.8611
3 -21.6183 6.33571 21.7995
3 -25.0363 9.51505 21.9831
3 -21.6602 9.4565 18.8476
3 -21.7879 3.29557 25.2061
4 -18.5693 12.4854 -24.6619
4 -18.606 18.6107 -24.6244
3 -15.5543 12.5098 -21.9942
3 -18.693 15.5823 -21.9851
3 -15.7106 9.41229 -25.3233
3 -21.757 9.37232 -25.2255
1 -18.5632 12.5557 -19.0446
1 -18.452 12.457 -12.5645
1 -18.5483 6.36801 -19.0394
1 -18.6005 18.4884 -12.5755
2 -21.834 9.42372 -22.0031
2 -21.8492 15.6103 -22.0235
2 -21.5827 9.38788 -15.6905
2 -21.7334 15.5276 -15.7108
3 -21.6175 12.5139 -21.9236
3 -18.6739 9.43073 -21.9086
3 -14.908 12.5783 -9.66589
3 -18.6895 15.0772 -9.54533
3 -22.1538 12.454 -15.7391
3 -18.5098 10.1554 -15.9251
3 -14.7331 12.457 -15.7298
3 -18.5971 14.9141 -15.7394
3 -21.591 15.5412 -18.8599
3 -15.6127 15.526 -18.9226
3 -15.7684 9.35399 -12.5948
3 -21.2403 9.4258 -12.5717
1 -18.8544 12.7267 -6.25648
1 -18.4753 12.4695 -2.97118e-15
1 -18.7608 6.86502 -6.26146
1 -18.6626 18.5322 -3.7537e-15
2 -21.7198 9.48657 -9.44902
2 -21.8275 15.6383 -9.44707
2 -21.761 9.50635 -3.12342
2 -21.8683 15.6816 -3.13678
3 -22.1778 12.5593 -9.37891
3 -18.5946 10.1163 -9.19908
3 -14.9903 12.6155 2.86622
3 -18.7292 15.1429 2.96694
3 -22.1657 12.5911 -3.20843
3 -18.6263 10.0948 -3.36707
3 -14.9903 12.6155 -2.86622
3 -18.7292 15.1429 -2.96694
3 -21.5411 15.7197 -6.28927
3 -15.8896 15.5696 -6.28246
3 -15.8909 9.32289 -1.33849e-15
3 -21.3336 9.54679 -1.0843e-15
1 -18.8544 12.7267 6.25648
1 -18.452 12.457 12.5645
1 -18.7608 6.86502 6.26146
1 -18.6005 18.4884 12.5755
2 -21.761 9.50635 3.12342
2 -21.8683 15.6816 3.13678
2 -21.7198 9.48657 9.44902
2 -21.8275 15.6383 9.44707
3 -22.1657 12.5911 3.20843
3 -18.6263 10.0948 3.36707
3 -14.7331 12.457 15.7298
3 -18.5971 14.9141 15.7394
3 -22.1778 12.5593 9.37891
3 -18.5946 10.1163 9.19908
3 -14.908 12.5783 9.66589
3 -18.6895 15.0772 9.54533
3 -21.5411 15.7197 6.28927
3 -15.8896 15.5696 6.28246
3 -15.7684 9.35399 12.5948
3 -21.2403 9.4258 12.5717
1 -18.5632 12.5557 19.0446
4 -18.5693 12.4854 24.6619
1 -18.5483 6.36801 19.0394
4 -18.606 18.6107 24.6244
2 -21.5827 9.38788 15.6905
2 -21.7334 15.5276 15.7108
2 -21.834 9.42372 22.0031
2 -21.8492 15.6103 22.0235
3 -22.1538 12.454 15.7391
3 -18.5098 10.1554 15.9251
3 -21.6175 12.5139 21.9236
3 -18.6739 9.43073 21.9086
3 -15.5543 12.5098 21.9942
3 -18.693 15.5823 21.9851
3 -21.591 15.5412 18.8599
3 -15.6127 15.526 18.9226
3 -15.7106 9.41229 25.3233
3 -21.757 9.37232 25.2255
4 -12.5333 18.5814 -24.6626
4 -12.5213 24.4762 -24.5461
3 -9.43151 18.668 -22.0603
3 -12.5112 21.6497 -21.857
3 -9.45632 15.5457 -25.3113
3 -15.5908 15.6353 -25.3164
1 -12.4983 18.6026 -19.0621
1 -12.3261 18.5148 -12.5496
1 -12.5431 12.487 -19.1239
4 -12.4428 24.0629 -12.5673
2 -15.5972 15.6036 -22.1161
2 -15.6121 21.8551 -22.0172
2 -15.4904 15.5024 -15.7499
2 -15.5244 21.6468 -15.7098
3 -15.5834 18.6985 -21.9494
3 -12.5073 15.5831 -21.9206
3 -8.89365 18.5665 -9.60153
3 -12.5505 21.1728 -9.50316
3 -16.2352 18.5662 -15.8451
3 -12.4581 16.3146 -15.8888
3 -8.70173 18.5094 -15.6786
3 -12.4529 21.0446 -15.7516
3 -15.5743 21.6124 -18.8572
3 -9.39475 21.5081 -18.8676
3 -9.72699 15.3133 -12.5975
3 -15.487 15.733 -12.6065
1 -12.8237 18.8122 -6.28219
1 -12.312 18.5767 -2.06282e-15
1 -12.7943 13.056 -6.26395
4 -12.5381 24.1857 1.30786e-16
2 -15.6139 15.6151 -9.45681
2 -15.6063 21.7948 -9.46197
2 -15.6499 15.6673 -3.1169
2 -15.6463 21.8467 -3.13335
3 -16.2189 18.6864 -9.31568
3 -12.5626 16.2466 -9.21239
3 -8.95801 18.612 2.88852
3 -12.5892 21.216 3.06278
3 -16.2625 18.7421 -3.27898
3 -12.5914 16.2521 -3.37723
3 -8.95801 18.612 -2.88852
3 -12.5892 21.216 -3.06278
3 -15.6561 21.7226 -6.30069
3 -9.65786 21.4235 -6.28204
3 -9.91087 15.2828 -9.18313e-16
3 -15.4789 15.9466 -8.09249e-16
1 -12.8237 18.8122 6.28219
1 -12.3261 18.5148 12.5496
1 -12.7943 13.056 6.26395
4 -12.4428 24.0629 12.5673
2 -15.6499 15.6673 3.1169
2 -15.6463 21.8467 3.13335
2 -15.6139 15.6151 9.45681
2 -15.6063 21.7948 9.46197
3 -16.2625 18.7421 3.27898
3 -12.5914 16.2521 3.37723
3 -8.70173 18.5094 15.6786
3 -12.4529 21.0446 15.7516
3 -16.2189 18.6864 9.31568
3 -12.5626 16.2466 9.21239
3 -8.89365 18.5665 9.60153
3 -12.5505 21.1728 9.50316
3 -15.6561 21.7226 6.30069
3 -9.65786 21.4235 6.28204
3 -9.72699 15.3133 12.5975
3 -15.487 15.733 12.6065
1 -12.4983 18.6026 19.0621
4 -12.5333 18.5814 24.6626
1 -12.5431 12.487 19.1239
4 -12.5213 24.4762 24.5461
2 -15.4904 15.5024 15.7499
2 -15.5244 21.6468 15.7098
2 -15.5972 15.6036 22.1161
2 -15.6121 21.8551 22.0172
3 -16.2352 18.5662 15.8451
3 -12.4581 16.3146 15.8888
3 -15.5834 18.6985 21.9494
3 -12.5073 15.5831 21.9206
3 -9.43151 18.668 22.0603
3 -12.5112 21.6497 21.857
3 -15.5743 21.6124 18.8572
3 -9.39475 21.5081 18.8676
3 -9.45632 15.5457 25.3113
3 -15.5908 15.6353 25.3164
4 -6.32134 24.3428 -24.6564
3 -3.33112 24.9864 -21.9501
3 -3.1789 21.7108 -25.1944
3 -9.47758 21.8107 -25.2602
4 -6.3939 24.3526 -18.9238
4 -5.99621 24.2993 -12.5065
1 -6.39596 18.5318 -19.0201
2 -9.42051 21.8169 -22.0294
2 -9.36893 21.6305 -15.7075
3 -9.36099 25.0103 -21.9401
3 -6.3334 21.5691 -21.912
3 -2.86009 24.7617 -9.66658
3 -9.77713 24.8372 -15.7439
3 -6.29626 22.0804 -15.7422
3 -2.78368 24.7057 -15.4608
3 -3.29122 21.1327 -12.5442
3 -9.31889 21.5541 -12.5796
4 -6.82928 24.5455 -6.27434
4 -6.01124 24.3118 -1.97711e-15
1 -6.60123 18.828 -6.25347
2 -9.47754 21.7006 -9.43604
2 -9.5114 21.7554 -3.13335
3 -9.87252 24.8788 -9.31748
3 -6.4044 22.0448 -9.28439
3 -2.88892 24.7845 2.92845
3 -9.9131 24.9302 -3.3395
3 -6.42411 22.0525 -3.26504
3 -2.88892 24.7845 -2.92845
3 -3.40051 21.1771 -4.62816e-17
3 -9.35884 21.7812 -6.65274e-16
4 -6.82928 24.5455 6.27434
4 -5.99621 24.2993 12.5065
1 -6.60123 18.828 6.25347
2 -9.5114 21.7554 3.13335
2 -9.47754 21.7006 9.43604
3 -9.9131 24.9302 3.3395
3 -6.42411 22.0525 3.26504
3 -2.78368 24.7057 15.4608
3 -9.87252 24.8788 9.31748
3 -6.4044 22.0448 9.28439
3 -2.86009 24.7617 9.66658
3 -3.29122 21.1327 12.5442
3 -9.31889 21.5541 12.5796
4 -6.3939 24.3526 18.9238
4 -6.32134 24.3428 24.6564
1 -6.39596 18.5318 19.0201
2 -9.36893 21.6305 15.7075
2 -9.42051 21.8169 22.0294
3 -9.77713 24.8372 15.7439
3 -6.29626 22.0804 15.7422
3 -9.36099 25.0103 21.9401
3 -6.3334 21.5691 21.912
3 -3.33112 24.9864 21.9501
3 -3.1789 21.7108 25.1944
3 -9.47758 21.8107 25.2602
4 -0.115841 24.0243 -18.4701
4 -0.248678 24.0896 -6.30671
4 -0.248678 24.0896 6.30671
4 -0.115841 24.0243 18.4701
4 -24.3612 -6.03982 -24.3537
4 -24.3074 0.135527 -24.5746
3 -21.5 -6.00979 -21.6985
3 -24.9263 -2.85094 -21.8564
3 -21.7245 -9.0891 -25.0827
4 -23.9546 -6.04411 -18.406
4 -23.7491 -5.99851 -12.4559
4 -24.1662 -12.0659 -18.6407
4 -24.179 -0.0575444 -12.4391
3 -24.8548 -9.14696 -21.6802
3 -20.8916 -5.86355 -9.41998
3 -24.6592 -3.24224 -9.623
3 -24.574 -8.78041 -15.5219
3 -20.7737 -5.98019 -15.6284
3 -24.6192 -3.3468 -15.4213
3 -21.5286 -2.87689 -18.7613
3 -21.2232 -9.08134 -12.4594
4 -23.9558 -5.93719 -6.26878
4 -23.7762 -5.94884 -8.63053e-16
4 -24.0662 -11.7377 -6.23224
4 -24.1652 -0.108586 -2.11147e-15
3 -24.5243 -8.78983 -9.28639
3 -20.8496 -5.85327 3.02424
3 -24.6544 -3.2561 2.90777
3 -24.525 -8.71052 -3.29187
3 -20.8496 -5.85327 -3.02424
3 -24.6544 -3.2561 -2.90777
3 -21.5638 -2.79001 -6.24927
3 -21.3455 -9.09372 -1.82178e-15
4 -23.9558 -5.93719 6.26878
4 -23.7491 -5.99851 12.4559
4 -24.0662 -11.7377 6.23224
4 -24.179 -0.0575444 12.4391
3 -24.525 -8.71052 3.29187
3 -20.7737 -5.98019 15.6284
3 -24.6192 -3.3468 15.4213
3 -24.5243 -8.78983 9.28639
3 -20.8916 -5.86355 9.41998
3 -24.6592 -3.24224 9.623
3 -21.5638 -2.79001 6.24927
3 -21.2232 -9.08134 12.4594
4 -23.9546 -6.04411 18.406
4 -24.3612 -6.03982 24.3537
4 -24.1662 -12.0659 18.6407
4 -24.3074 0.135527 24.5746
3 -24.574 -8.78041 15.5219
3 -24.8548 -9.14696 21.6802
3 -21.5 -6.00979 21.6985
3 -24.9263 -2.85094 21.8564
3 -21.5286 -2.87689 18.7613
3 -21.7245 -9.0891 25.0827
4 -18.4594 0.110936 -24.6123
4 -18.5628 6.36641 -24.6299
3 -15.4613 0.168067 -21.9328
3 -18.6181 3.26487 -22.0318
3 -15.6153 -2.97911 -25.2482
3 -21.6731 -2.99979 -25.1335
1 -18.4677 0.245378 -18.9656
1 -18.216 0.108216 -12.5042
1 -18.4177 -5.92511 -18.9477
1 -18.4021 6.15927 -12.5105
2 -21.7227 -2.92493 -21.9124
2 -21.7665 3.2461 -21.9754
2 -21.4249 -2.91226 -15.6059
2 -21.5265 3.22841 -15.663
3 -21.5129 0.162306 -21.8522
3 -18.5605 -2.91264 -21.8282
3 -14.6635 0.356429 -9.70789
3 -18.4237 2.78487 -9.60102
3 -21.957 0.149064 -15.6879
3 -18.3405 -2.18663 -15.8662
3 -14.5915 0.204135 -15.6087
3 -18.4072 2.56054 -15.621
3 -21.4265 3.22928 -18.8175
3 -15.5867 3.20045 -18.8804
3 -15.5465 -2.96873 -12.536
3 -21.0383 -2.85423 -12.4978
1 -18.7054 0.483292 -6.24419
1 -18.1765 0.114124 -1.43774e-15
1 -18.506 -5.44346 -6.24223
1 -18.4481 6.15193 -3.20023e-15
2 -21.4967 -2.79927 -9.38849
2 -21.5588 3.35779 -9.40292
2 -21.4947 -2.79382 -3.10534
2 -21.6107 3.37737 -3.12729
3 -21.8624 0.275049 -9.24417
3 -18.3474 -2.22651 -9.12074
3 -14.7013 0.372668 2.78405
3 -18.4634 2.83143 2.85921
3 -21.8904 0.284961 -3.26531
3 -18.3491 -2.21133 -3.39907
3 -14.7013 0.372668 -2.78405
3 -18.4634 2.83143 -2.85921
3 -21.2789 3.56197 -6.26403
3 -15.6953 3.21037 -6.26303
3 -15.6094 -3.00335 -3.88085e-16
3 -21.0327 -2.75717 -3.24125e-16
1 -18.7054 0.483292 6.24419
1 -18.216 0.108216 12.5042
1 -18.506 -5.44346 6.24223
1 -18.4021 6.15927 12.5105
2 -21.4947 -2.79382 3.10534
2 -21.6107 3.37737 3.12729
2 -21.4967 -2.79927 9.38849
2 -21.5588 3.35779 9.40292
3 -21.8904 0.284961 3.26531
3 -18.3491 -2.21133 3.39907
3 -14.5915 0.204135 15.6087
3 -18.4072 2.56054 15.621
3 -21.8624 0.275049 9.24417
3 -18.3474 -2.22651 9.12074
3 -14.6635 0.356429 9.70789
3 -18.4237 2.78487 9.60102
3 -21.2789 3.56197 6.26403
3 -15.6953 3.21037 6.26303
3 -15.5465 -2.96873 12.536
3 -21.0383 -2.85423 12.4978
1 -18.4677 0.245378 18.9656
4 -18.4594 0.110936 24.6123
1 -18.4177 -5.92511 18.9477
4 -18.5628 6.36641 24.6299
2 -21.4249 -2.91226 15.6059
2 -21.5265 3.22841 15.663
2 -21.7227 -2.92493 21.9124
2 -21.7665 3.2461 21.9754
3 -21.957 0.149064 15.6879
3 -18.3405 -2.18663 15.8662
3 -21.5129 0.162306 21.8522
3 -18.5605 -2.91264 21.8282
3 -15.4613 0.168067 21.9328
3 -18.6181 3.26487 22.0318
3 -21.4265 3.22928 18.8175
3 -15.5867 3.20045 18.8804
3 -15.6153 -2.97911 25.2482
3 -21.6731 -2.99979 25.1335
4 -12.4607 6.2346 -24.673
4 -12.4334 12.5135 -24.6802
3 -9.3493 6.30917 -22.0577
3 -12.4842 9.39287 -22.0808
3 -9.47938 3.13095 -25.2789
3 -15.4919 3.25149 -25.2774
1 -12.4964 6.42199 -19.0814
1 -11.8745 6.09872 -12.5945
1 -12.46 0.241043 -19.0424
1 -12.3198 12.092 -12.5989
2 -15.5136 3.25367 -22.0799
2 -15.5772 9.4209 -22.1247
2 -15.3352 3.28846 -15.7056
2 -15.4504 9.37429 -15.7392
3 -15.5509 6.33806 -21.906
3 -12.4268 3.27762 -21.8133
3 -8.60491 6.34415 -9.80644
3 -12.4701 8.74338 -9.77332
3 -16.2348 6.33003 -15.8894
3 -12.2857 3.99899 -15.9923
3 -8.54343 6.26102 -15.5202
3 -12.3956 8.59538 -15.5887
3 -15.4145 9.46275 -18.9218
3 -9.52467 9.22034 -18.9088
3 -9.51009 2.89329 -12.5835
3 -15.1581 3.64012 -12.5706
1 -12.9919 6.69369 -6.26977
1 -11.8401 6.1342 -1.26874e-15
1 -12.5412 0.846593 -6.26271
1 -12.3405 12.0569 -2.15279e-15
2 -15.3574 3.41666 -9.42476
2 -15.5081 9.51348 -9.44415
2 -15.3839 3.42944 -3.10804
2 -15.5338 9.53543 -3.12113
3 -16.1386 6.45869 -9.12773
3 -12.2921 4.04856 -9.08436
3 -8.63539 6.35676 2.77058
3 -12.4863 8.80733 2.78154
3 -16.1255 6.47388 -3.43799
3 -12.3006 4.02646 -3.48488
3 -8.63539 6.35676 -2.77058
3 -12.4863 8.80733 -2.78154
3 -15.3588 9.89549 -6.2786
3 -9.7871 9.13773 -6.28832
3 -9.55177 2.90882 -1.37625e-15
3 -15.1145 3.83544 -1.89733e-15
1 -12.9919 6.69369 6.26977
1 -11.8745 6.09872 12.5945
1 -12.5412 0.846593 6.26271
1 -12.3198 12.092 12.5989
2 -15.3839 3.42944 3.10804
2 -15.5338 9.53543 3.12113
2 -15.3574 3.41666 9.42476
2 -15.5081 9.51348 9.44415
3 -16.1255 6.47388 3.43799
3 -12.3006 4.02646 3.48488
3 -8.54343 6.26102 15.5202
3 -12.3956 8.59538 15.5887
3 -16.1386 6.45869 9.12773
3 -12.2921 4.04856 9.08436
3 -8.60491 6.34415 9.80644
3 -12.4701 8.74338 9.77332
3 -15.3588 9.89549 6.2786
3 -9.7871 9.13773 6.28832
3 -9.51009 2.89329 12.5835
3 -15.1581 3.64012 12.5706
1 -12.4964 6.42199 19.0814
4 -12.4607 6.2346 24.673
1 -12.46 0.241043 19.0424
4 -12.4334 12.5135 24.6802
2 -15.3352 3.28846 15.7056
2 -15.4504 9.37429 15.7392
2 -15.5136 3.25367 22.0799
2 -15.5772 9.4209 22.1247
3 -16.2348 6.33003 15.8894
3 -12.2857 3.99899 15.9923
3 -15.5509 6.33806 21.906
3 -12.4268 3.27762 21.8133
3 -9.3493 6.30917 22.0577
3 -12.4842 9.39287 22.0808
3 -15.4145 9.46275 18.9218
3 -9.52467 9.22034 18.9088
3 -9.47938 3.13095 25.2789
3 -15.4919 3.25149 25.2774
4 -6.35285 12.3958 -24.647
4 -6.28261 18.5139 -24.6586
3 -3.21937 12.4344 -22.0543
3 -6.33516 15.5182 -21.9802
3 -3.32122 9.28857 -25.2817
3 -9.32415 9.50671 -25.3071
1 -6.37839 12.5231 -19.0823
1 -5.88139 12.1831 -12.6108
1 -6.39537 6.38895 -19.0397
1 -6.26095 18.3011 -12.5514
2 -9.38944 9.39447 -22.1127
2 -9.42151 15.5658 -22.1131
2 -9.30689 9.33701 -15.7427
2 -9.41647 15.4275 -15.7397
3 -9.43741 12.4789 -21.8641
3 -6.30915 9.4178 -21.8109
3 -2.63334 12.3306 -9.77335
3 -6.4742 14.7761 -9.71616
3 -10.1706 12.3839 -15.9909
3 -6.24545 10.054 -16.0271
3 -2.48079 12.305 -15.5416
3 -6.34201 14.6775 -15.6562
3 -9.35196 15.6387 -18.9149
3 -3.32648 15.3404 -18.8929
3 -3.52793 8.95241 -12.5921
3 -9.10571 9.67282 -12.5983
1 -6.97786 12.6921 -6.27373
1 -5.87116 12.1707 2.88124e-16
1 -6.55768 6.86223 -6.29286
1 -6.26254 18.2968 -1.1282e-15
2 -9.39975 9.38779 -9.44701
2 -9.5167 15.4958 -9.44931
2 -9.40764 9.40043 -3.13548
2 -9.54121 15.5311 -3.11244
3 -10.1827 12.4396 -9.11862
3 -6.33187 10.0548 -9.09324
3 -2.67716 12.3327 2.77872
3 -6.49456 14.8397 2.81473
3 -10.1521 12.4577 -3.462
3 -6.33603 10.0309 -3.50041
3 -2.67716 12.3327 -2.77872
3 -6.49456 14.8397 -2.81473
3 -9.3869 15.84 -6.27644
3 -3.79189 15.1808 -6.27374
3 -3.61925 8.90604 -1.72916e-16
3 -9.08217 9.75299 -1.27088e-15
1 -6.97786 12.6921 6.27373
1 -5.88139 12.1831 12.6108
1 -6.55768 6.86223 6.29286
1 -6.26095 18.3011 12.5514
2 -9.40764 9.40043 3.13548
2 -9.54121 15.5311 3.11244
2 -9.39975 9.38779 9.44701
2 -9.5167 15.4958 9.44931
3 -10.1521 12.4577 3.462
3 -6.33603 10.0309 3.50041
3 -2.48079 12.305 15.5416
3 -6.34201 14.6775 15.6562
3 -10.1827 12.4396 9.11862
3 -6.33187 10.0548 9.09324
3 -2.63334 12.3306 9.77335
3 -6.4742 14.7761 9.71616
3 -9.3869 15.84 6.27644
3 -3.79189 15.1808 6.27374
3 -3.52793 8.95241 12.5921
3 -9.10571 9.67282 12.5983
1 -6.37839 12.5231 19.0823
4 -6.35285 12.3958 24.647
1 -6.39537 6.38895 19.0397
4 -6.28261 18.5139 24.6586
2 -9.30689 9.33701 15.7427
2 -9.41647 15.4275 15.7397
2 -9.38944 9.39447 22.1127
2 -9.42151 15.5658 22.1131
3 -10.1706 12.3839 15.9909
3 -6.24545 10.054 16.0271
3 -9.43741 12.4789 21.8641
3 -6.30915 9.4178 21.8109
3 -3.21937 12.4344 22.0543
3 -6.33516 15.5182 21.9802
3 -9.35196 15.6387 18.9149
3 -3.32648 15.3404 18.8929
3 -3.32122 9.28857 25.2817
3 -9.32415 9.50671 25.3071
4 -0.180862 18.5094 -24.5887
4 -0.131954 24.3996 -24.4385
3 2.91785 18.5616 -21.9884
3 -0.156024 21.5636 -21.7578
3 2.92293 15.4464 -25.2442
3 -3.20238 15.6669 -25.2923
1 -0.217056 18.4866 -18.9979
1 -0.0182121 18.288 -12.4841
1 -0.272386 12.4453 -19.0472
4 -0.120836 23.8271 -12.5076
2 -3.24755 15.5253 -22.0941
2 -3.24291 21.7834 -21.9716
2 -3.24281 15.3638 -15.7181
2 -3.23431 21.5135 -15.658
3 -3.25241 18.6228 -21.8746
3 -0.165146 15.5011 -21.855
3 3.31703 18.303 -9.57894
3 -0.282987 20.9584 -9.47447
3 -3.97107 18.433 -15.9125
3 -0.182692 16.1259 -15.8801
3 3.59672 18.32 -15.5848
3 -0.162341 20.8611 -15.6844
3 -3.28875 21.6095 -18.818
3 2.93769 21.3644 -18.7744
3 2.51373 15.0472 -12.5485
3 -3.17193 15.6476 -12.5738
1 -0.695796 18.6238 -6.25774
1 -0.00318205 18.2942 5.10466e-16
1 -0.568215 12.8368 -6.26803
4 -0.198796 23.9014 1.83188e-15
2 -3.40551 15.3712 -9.42634
2 -3.33693 21.6035 -9.42475
2 -3.41259 15.3845 -3.12526
2 -3.34709 21.6252 -3.11692
3 -3.95334 18.4664 -9.16784
3 -0.334691 15.9762 -9.11034
3 3.30977 18.3225 2.85768
3 -0.298142 20.9544 3.01962
3 -3.94563 18.4826 -3.38328
3 -0.340267 15.9679 -3.44205
3 3.30977 18.3225 -2.85768
3 -0.298142 20.9544 -3.01962
3 -3.36623 21.6595 -6.2728
3 2.5967 21.1605 -6.24985
3 2.32415 14.9691 -4.31499e-16
3 -3.14449 15.7236 -4.35735e-16
1 -0.695796 18.6238 6.25774
1 -0.0182121 18.288 12.4841
1 -0.568215 12.8368 6.26803
4 -0.120836 23.8271 12.5076
2 -3.41259 15.3845 3.12526
2 -3.34709 21.6252 3.11692
2 -3.40551 15.3712 9.42634
2 -3.33693 21.6035 9.42475
3 -3.94563 18.4826 3.38328
3 -0.340267 15.9679 3.44205
3 3.59672 18.32 15.5848
3 -0.162341 20.8611 15.6844
3 -3.95334 18.4664 9.16784
3 -0.334691 15.9762 9.11034
3 3.31703 18.303 9.57894
3 -0.282987 20.9584 9.47447
3 -3.36623 21.6595 6.2728
3 2.5967 21.1605 6.24985
3 2.51373 15.0472 12.5485
3 -3.17193 15.6476 12.5738
1 -0.217056 18.4866 18.9979
4 -0.180862 18.5094 24.5887
1 -0.272386 12.4453 19.0472
4 -0.131954 24.3996 24.4385
2 -3.24281 15.3638 15.7181
2 -3.23431 21.5135 15.658
2 -3.24755 15.5253 22.0941
2 -3.24291 21.7834 21.9716
3 -3.97107 18.433 15.9125
3 -0.182692 16.1259 15.8801
3 -3.25241 18.6228 21.8746
3 -0.165146 15.5011 21.855
3 2.91785 18.5616 21.9884
3 -0.156024 21.5636 21.7578
3 -3.28875 21.6095 18.818
3 2.93769 21.3644 18.7744
3 2.92293 15.4464 25.2442
3 -3.20238 15.6669 25.2923
4 6.05478 24.2609 -24.5175
3 9.04109 24.8773 -21.7955
3 9.18404 21.6192 -25.0777
3 2.90054 21.7366 -25.1603
4 5.9408 24.2189 -18.773
4 6.11931 24.0871 -12.3637
1 5.92042 18.4079 -18.9239
2 2.93291 21.7104 -21.9309
2 2.92109 21.4397 -15.6256
3 3.0113 24.9047 -21.8101
3 6.01734 21.4617 -21.7985
3 9.34268 24.5659 -9.54808
3 2.60828 24.6599 -15.6003
3 5.99715 21.8842 -15.6373
3 9.48663 24.5616 -15.3719
3 9.00064 20.9558 -12.452
3 2.97698 21.3152 -12.5103
4 5.51035 24.2526 -6.2545
4 6.23191 24.0251 1.85059e-15
1 5.66706 18.5681 -6.23941
2 2.78796 21.4451 -9.37871
2 2.7736 21.4744 -3.12044
3 2.55891 24.6359 -9.31589
3 5.87725 21.6823 -9.22243
3 9.39422 24.5266 2.89669
3 2.47759 24.6611 -3.32164
3 5.86951 21.7299 -3.25568
3 9.39422 24.5266 -2.89669
3 8.92618 20.8828 7.76682e-16
3 2.97095 21.4957 1.10032e-15
4 5.51035 24.2526 6.2545
4 6.11931 24.0871 12.3637
1 5.66706 18.5681 6.23941
2 2.7736 21.4744 3.12044
2 2.78796 21.4451 9.37871
3 2.47759 24.6611 3.32164
3 5.86951 21.7299 3.25568
3 9.48663 24.5616 15.3719
3 2.55891 24.6359 9.31589
3 5.87725 21.6823 9.22243
3 9.34268 24.5659 9.54808
3 9.00064 20.9558 12.452
3 2.97698 21.3152 12.5103
4 5.9408 24.2189 18.773
4 6.05478 24.2609 24.5175
1 5.92042 18.4079 18.9239
2 2.92109 21.4397 15.6256
2 2.93291 21.7104 21.9309
3 2.60828 24.6599 15.6003
3 5.99715 21.8842 15.6373
3 3.0113 24.9047 21.8101
3 6.01734 21.4617 21.7985
3 9.04109 24.8773 21.7955
3 9.18404 21.6192 25.0777
3 2.90054 21.7366 25.1603
4 12.1995 23.9371 -18.3474
4 12.094 23.8498 -6.19714
4 12.094 23.8498 6.19714
4 12.1995 23.9371 18.3474
4 -24.2864 -18.3636 -24.2356
4 -24.2696 -12.2159 -24.3853
3 -21.4579 -18.3548 -21.5429
3 -24.8578 -15.1944 -21.6525
3 -21.3558 -21.1249 -24.9672
4 -23.9979 -18.244 -18.2982
4 -23.7262 -18.1695 -12.3442
4 -24.204 -23.9513 -18.4776
4 -24.0417 -12.131 -12.2885
3 -24.8928 -21.0371 -21.208
3 -20.9558 -18.2275 -9.29068
3 -24.537 -15.4022 -9.43695
3 -24.6023 -21.1687 -15.3556
3 -20.9373 -18.2949 -15.4811
3 -24.6021 -15.5197 -15.3051
3 -21.4542 -15.1791 -18.6208
3 -21.1362 -21.2647 -12.3642
4 -23.8322 -18.1456 -6.15886
4 -23.6106 -18.1422 -5.59261e-16
4 -24.0694 -23.6961 -6.1609
4 -23.93 -12.2753 -2.02819e-15
3 -24.5231 -21.0809 -9.26552
3 -20.8529 -18.2147 3.08039
3 -24.4684 -15.461 2.91175
3 -24.4668 -21.0434 -3.06388
3 -20.8529 -18.2147 -3.08039
3 -24.4684 -15.461 -2.91175
3 -21.3362 -15.0987 -6.19617
3 -21.0414 -21.2448 -1.31408e-15
4 -23.8322 -18.1456 6.15886
4 -23.7262 -18.1695 12.3442
4 -24.0694 -23.6961 6.1609
4 -24.0417 -12.131 12.2885
3 -24.4668 -21.0434 3.06388
3 -20.9373 -18.2949 15.4811
3 -24.6021 -15.5197 15.3051
3 -24.5231 -21.0809 9.26552
3 -20.9558 -18.2275 9.29068
3 -24.537 -15.4022 9.43695
3 -21.3362 -15.0987 6.19617
3 -21.1362 -21.2647 12.3642
4 -23.9979 -18.244 18.2982
4 -24.2864 -18.3636 24.2356
4 -24.204 -23.9513 18.4776
4 -24.2696 -12.2159 24.3853
3 -24.6023 -21.1687 15.3556
3 -24.8928 -21.0371 21.208
3 -21.4579 -18.3548 21.5429
3 -24.8578 -15.1944 21.6525
3 -21.4542 -15.1791 18.6208
3 -21.3558 -21.1249 24.9672
4 -18.4092 -12.2559 -24.4895
4 -18.4602 -5.98702 -24.5354
3 -15.3793 -12.18 -21.8426
3 -18.5125 -9.08924 -21.9403
3 -15.5145 -15.3673 -25.1209
3 -21.5868 -15.3008 -24.9855
1 -18.3655 -12.099 -18.8206
1 -18.1413 -12.2037 -12.3798
1 -18.3895 -18.2183 -18.7121
1 -18.1835 -6.106 -12.4217
2 -21.6574 -15.2724 -21.7704
2 -21.6606 -9.09683 -21.8573
2 -21.3921 -15.2006 -15.4875
2 -21.3467 -9.05528 -15.5673
3 -21.4378 -12.1791 -21.701
3 -18.4905 -15.2437 -21.6623
3 -14.5481 -11.9471 -9.61608
3 -18.182 -9.42262 -9.55631
3 -21.7748 -12.1332 -15.5322
3 -18.2645 -14.6176 -15.7287
3 -14.454 -12.0727 -15.5061
3 -18.2296 -9.74899 -15.5036
3 -21.2827 -9.09151 -18.7041
3 -15.467 -9.14757 -18.792
3 -15.3817 -15.2287 -12.4595
3 -20.9665 -15.163 -12.3935
1 -18.3969 -11.8696 -6.22866
1 -17.9914 -12.1876 -4.66016e-16
1 -18.2451 -17.9697 -6.22025
1 -18.1652 -6.13461 -1.83329e-15
2 -21.3431 -15.1297 -9.30225
2 -21.3289 -8.93972 -9.33781
2 -21.2751 -15.1151 -3.08467
2 -21.3295 -8.92958 -3.11138
3 -21.5027 -12.04 -9.23568
3 -18.1666 -14.7141 -9.06378
3 -14.4932 -11.9315 2.79508
3 -18.177 -9.44379 2.84754
3 -21.5512 -12.0324 -3.20208
3 -18.1186 -14.6375 -3.38112
3 -14.4932 -11.9315 -2.79508
3 -18.177 -9.44379 -2.84754
3 -21.0182 -8.7942 -6.22612
3 -15.4392 -9.10759 -6.23287
3 -15.3464 -15.2563 -1.1398e-15
3 -20.8239 -15.1157 -7.83775e-16
1 -18.3969 -11.8696 6.22866
1 -18.1413 -12.2037 12.3798
1 -18.2451 -17.9697 6.22025
1 -18.1835 -6.106 12.4217
2 -21.2751 -15.1151 3.08467
2 -21.3295 -8.92958 3.11138
2 -21.3431 -15.1297 9.30225
2 -21.3289 -8.93972 9.33781
3 -21.5512 -12.0324 3.20208
3 -18.1186 -14.6375 3.38112
3 -14.454 -12.0727 15.5061
3 -18.2296 -9.74899 15.5036
3 -21.5027 -12.04 9.23568
3 -18.1666 -14.7141 9.06378
3 -14.5481 -11.9471 9.61608
3 -18.182 -9.42262 9.55631
3 -21.0182 -8.7942 6.22612
3 -15.4392 -9.10759 6.23287
3 -15.3817 -15.2287 12.4595
3 -20.9665 -15.163 12.3935
1 -18.3655 -12.099 18.8206
4 -18.4092 -12.2559 24.4895
1 -18.3895 -18.2183 18.7121
4 -18.4602 -5.98702 24.5354
2 -21.3921 -15.2006 15.4875
2 -21.3467 -9.05528 15.5673
2 -21.6574 -15.2724 21.7704
2 -21.6606 -9.09683 21.8573
3 -21.7748 -12.1332 15.5322
3 -18.2645 -14.6176 15.7287
3 -21.4378 -12.1791 21.701
3 -18.4905 -15.2437 21.6623
3 -15.3793 -12.18 21.8426
3 -18.5125 -9.08924 21.9403
3 -21.2827 -9.09151 18.7041
3 -15.467 -9.14757 18.792
3 -15.5145 -15.3673 25.1209
3 -21.5868 -15.3008 24.9855
4 -12.3702 -6.10555 -24.6045
4 -12.3508 0.187606 -24.6061
3 -9.23432 -6.03444 -22.0282
3 -12.3721 -2.95512 -22.024
3 -9.37538 -9.29651 -25.2037
3 -15.3798 -9.11593 -25.1855
1 -12.3845 -5.87826 -19.0095
1 -11.6423 -6.18749 -12.5318
1 -12.3642 -12.0753 -18.9537
1 -12.0691 -0.277482 -12.5902
2 -15.4067 -9.08928 -21.9898
2 -15.463 -2.91906 -22.0511
2 -15.165 -8.98747 -15.6282
2 -15.2681 -2.89728 -15.6782
3 -15.4454 -6.00404 -21.8072
3 -12.3156 -9.06289 -21.7244
3 -8.3875 -5.92479 -9.76425
3 -12.2063 -3.49213 -9.75964
3 -16.045 -5.95599 -15.8396
3 -12.1097 -8.29702 -15.9282
3 -8.35982 -6.03507 -15.4422
3 -12.2106 -3.66817 -15.4993
3 -15.2592 -2.82956 -18.8516
3 -9.38686 -3.15286 -18.859
3 -9.29039 -9.40447 -12.5253
3 -14.9115 -8.63021 -12.5062
1 -12.7016 -5.57056 -6.2528
1 -11.5602 -6.14915 -1.4508e-15
1 -12.3103 -11.5208 -6.2312
1 -12.0119 -0.269843 -1.4613e-15
2 -15.1063 -8.8494 -9.37479
2 -15.2444 -2.71617 -9.39656
2 -15.0979 -8.84405 -3.09703
2 -15.2465 -2.71259 -3.11674
3 -15.8261 -5.79733 -9.06316
3 -12.0356 -8.28696 -9.02221
3 -8.36662 -5.91598 2.76057
3 -12.1951 -3.45666 2.75935
3 -15.8207 -5.79456 -3.45188
3 -12.0157 -8.28578 -3.5
3 -8.36662 -5.91598 -2.76057
3 -12.1951 -3.45666 -2.75935
3 -15.0172 -2.32698 -6.25589
3 -9.50327 -3.14435 -6.27619
3 -9.29836 -9.38622 -7.07836e-16
3 -14.817 -8.44927 -1.38691e-15
1 -12.7016 -5.57056 6.2528
1 -11.6423 -6.18749 12.5318
1 -12.3103 -11.5208 6.2312
1 -12.0691 -0.277482 12.5902
2 -15.0979 -8.84405 3.09703
2 -15.2465 -2.71259 3.11674
2 -15.1063 -8.8494 9.37479
2 -15.2444 -2.71617 9.39656
3 -15.8207 -5.79456 3.45188
3 -12.0157 -8.28578 3.5
3 -8.35982 -6.03507 15.4422
3 -12.2106 -3.66817 15.4993
3 -15.8261 -5.79733 9.06316
3 -12.0356 -8.28696 9.02221
3 -8.3875 -5.92479 9.76425
3 -12.2063 -3.49213 9.75964
3 -15.0172 -2.32698 6.25589
3 -9.50327 -3.14435 6.27619
3 -9.29039 -9.40447 12.5253
3 -14.9115 -8.63021 12.5062
1 -12.3845 -5.87826 19.0095
4 -12.3702 -6.10555 24.6045
1 -12.3642 -12.0753 18.9537
4 -12.3508 0.187606 24.6061
2 -15.165 -8.98747 15.6282
2 -15.2681 -2.89728 15.6782
2 -15.4067 -9.08928 21.9898
2 -15.463 -2.91906 22.0511
3 -16.045 -5.95599 15.8396
3 -12.1097 -8.29702 15.9282
3 -15.4454 -6.00404 21.8072
3 -12.3156 -9.06289 21.7244
3 -9.23432 -6.03444 22.0282
3 -12.3721 -2.95512 22.024
3 -15.2592 -2.82956 18.8516
3 -9.38686 -3.15286 18.859
3 -9.37538 -9.29651 25.2037
3 -15.3798 -9.11593 25.1855
4 -6.26744 0.0472899 -24.6301
4 -6.21324 6.32233 -24.6434
3 -3.1094 0.0857327 -22.0462
3 -6.25551 3.1723 -22.0572
3 -3.21606 -3.11346 -25.2552
3 -9.22334 -2.86144 -25.2547
1 -6.32398 0.246009 -19.0276
1 -5.60237 -0.171331 -12.5999
1 -6.25359 -5.90325 -18.9939
1 -5.96207 5.69649 -12.6116
2 -9.27518 -2.94165 -22.0613
2 -9.34185 3.21885 -22.0853
2 -9.11692 -2.95875 -15.7106
2 -9.23668 3.15634 -15.7301
3 -9.36695 0.1381 -21.7745
3 -6.19285 -2.90776 -21.7608
3 -2.36449 0.0690519 -9.77843
3 -6.19647 2.48337 -9.79355
3 -9.95087 0.0908424 -16.0211
3 -6.05312 -2.2663 -16.0164
3 -2.32019 0.00991914 -15.4909
3 -6.15746 2.41709 -15.5031
3 -9.1225 3.37061 -18.8859
3 -3.30114 2.94176 -18.8771
3 -3.25022 -3.37337 -12.5737