7407
 Atoms. Timestep: 111102
3 -30.6688 34.9529 -31.2207
3 -30.7451 31.0086 -35.0191
4 -33.5743 35.0391 -28.2997
4 -33.29 34.5652 -22.0831
4 -33.8596 28.3448 -28.8534
3 -34.4411 31.6069 -31.5688
3 -31.1231 34.9346 -18.9817
3 -34.7736 32.2138 -25.1257
3 -30.7336 34.4681 -25.3007
3 -31.4542 31.078 -22.2005
4 -33.7726 34.2951 -15.7302
4 -34.1149 34.0873 -9.54154
4 -34.4789 28.0909 -15.686
3 -34.6935 32.191 -19.1698
3 -31.279 34.6981 -6.26199
3 -34.7167 31.8991 -12.6895
3 -31.2003 34.5049 -12.5524
3 -31.5236 30.8835 -9.41256
4 -34.2236 33.8609 -3.51942
4 -34.2738 34.1388 3.01717
4 -34.8786 27.3309 -3.0004
3 -34.8739 31.6252 -6.69069
3 -31.6559 34.3058 6.02497
3 -34.9302 31.4059 -0.0216043
3 -31.7226 34.6667 -0.0812457
3 -31.7843 31.0532 3.13795
4 -33.7877 34.0086 9.33845
4 -33.8859 34.2992 15.9865
4 -34.2742 28.4819 9.57434
3 -35.0596 31.7521 6.35625
3 -31.2112 34.4285 18.7457
3 -34.9767 32.3609 12.674
3 -31.0051 34.3814 12.8916
3 -32.1358 30.7605 15.4829
4 -33.491 34.1374 21.9793
4 -34.0283 34.1036 28.5159
4 -34.218 28.4753 22.6423
3 -35.258 31.6022 19.0574
3 -30.9729 34.804 30.9474
3 -34.5106 31.4349 25.4126
3 -30.8795 34.542 25.1021
3 -31.1962 31.2459 28.2977
4 -33.692 28.4794 34.768
3 -34.6569 31.1846 31.2429
4 -28.1053 33.5929 -27.998
4 -28.113 34.2584 -15.8105
4 -28.219 33.889 -3.04416
4 -28.0023 33.5067 9.48105
4 -28.0076 33.5239 21.8651
4 -28.081 34.4503 33.5133
4 -34.5442 21.9888 -33.8932
4 -34.0843 28.9105 -34.4534
3 -31.2454 21.7878 -31.4322
3 -34.729 25.3443 -31.7168
3 -31.9938 19.1303 -34.8911
4 -33.675 21.5715 -28.1795
4 -34.1233 22.4166 -21.6842
4 -34.1332 16.1833 -28.3204
4 -34.6039 28.2149 -21.9805
3 -34.712 18.8345 -31.3805
3 -30.8162 22.1971 -19.2852
3 -35.0985 24.9543 -18.9026
3 -34.9142 18.7438 -25.4336
3 -31.1681 22.272 -25.2884
3 -34.916 24.7689 -24.7624
3 -31.0229 25.1646 -28.6339
3 -31.8033 18.9861 -21.9862
4 -34.1686 21.7043 -15.4109
4 -33.998 22.0662 -9.43473
4 -34.3255 15.8926 -15.5941
4 -34.4539 28.0939 -9.51635
3 -34.6486 19.4471 -18.8235
3 -30.7406 22.0615 -6.53701
3 -34.7837 24.6421 -6.22861
3 -34.7173 18.8217 -12.7598
3 -30.7116 21.8488 -12.5986
3 -35.0574 24.76 -12.3633
3 -31.925 24.8875 -15.5861
3 -31.7121 18.8103 -9.42853
4 -34.2426 21.9634 -3.05422
4 -34.0621 21.8092 2.53167
4 -34.5426 16.1436 -3.04468
4 -34.9927 28.5859 3.38899
3 -34.6473 19.5691 -6.40175
3 -30.9227 21.8751 5.89059
3 -34.8402 24.3692 6.19821
3 -34.6284 19.1962 -0.212283
3 -30.7519 21.9933 -0.0311069
3 -34.9853 24.7821 0.137527
3 -31.478 24.8699 -3.05747
3 -31.327 18.7713 2.96734
4 -34.2392 21.7155 9.01647
4 -33.8788 21.7703 15.7554
4 -34.4503 15.7389 9.38785
4 -34.2658 27.466 15.7209
3 -34.7477 18.7284 5.7126
3 -31.021 21.9311 19.1599
3 -34.7938 24.669 19.2323
3 -34.8613 18.9966 12.5743
3 -30.7517 21.8272 13.0721
3 -34.6058 24.4227 12.8189
3 -31.7378 24.8752 9.50662
3 -31.4669 18.7006 15.8559
4 -34.197 22.1405 21.9996
4 -33.9041 21.6114 28.4394
4 -34.2715 16.0116 21.8486
4 -33.7512 28.2356 28.3619
3 -34.9323 18.7916 18.8091
3 -31.2234 22.0347 31.3291
3 -34.7148 25.4072 31.2002
3 -34.8168 19.387 25.4016
3 -31.1925 21.8437 25.1018
3 -34.5151 25.4431 25.3244
3 -31.5855 25.3331 22.1922
3 -31.3368 18.5034 28.4898
4 -34.3996 22.4762 33.9044
4 -34.0171 16.2742 34.3722
3 -34.8615 18.4853 30.9349
3 -31.1622 25.0287 34.6415
4 -28.0584 28.3531 -34.257
4 -28.0313 34.048 -34.1568
3 -25.2754 28.3324 -31.6418
3 -28.1013 31.2767 -31.5573
3 -25.4546 24.9661 -34.8182
3 -31.6062 24.7591 -35.0024
1 -28.2217 28.0921 -28.4451
1 -28.2564 28.1659 -21.9811
1 -28.2265 22.2057 -28.8547
4 -28.1406 33.8557 -22.0651
2 -31.4393 25.0778 -31.7107
2 -31.2942 31.8279 -32.046
2 -31.3865 25.3638 -25.1534
2 -31.5049 31.498 -25.2538
3 -31.1336 28.23 -31.9238
3 -28.4317 24.8952 -32.0124
3 -24.5316 28.332 -19.0937
3 -28.4736 31.3155 -19.1075
3 -32.3319 28.3097 -25.3766
3 -28.3476 25.8644 -25.3583
3 -24.8481 28.223 -25.0852
3 -28.237 30.7085 -24.9169
3 -31.3445 31.1687 -28.3815
3 -24.9218 31.2635 -28.3582
3 -25.5668 25.0029 -22.1174
3 -31.2633 25.4653 -21.9624
1 -28.8324 28.0528 -15.4489
1 -28.1022 28.3331 -9.38745
1 -28.2974 21.936 -16.21
4 -28.4379 33.9339 -9.23862
2 -31.6308 25.3734 -18.722
2 -31.6295 31.5322 -19.035
2 -31.699 25.0086 -12.3339
2 -31.6196 31.3124 -12.4591
3 -31.7383 28.4436 -18.7535
3 -28.3479 25.942 -18.6227
3 -24.751 28.0732 -6.51231
3 -28.5471 30.9165 -6.19457
3 -31.9609 28.0613 -12.6786
3 -28.4902 25.4589 -12.6601
3 -25.203 28.058 -12.7994
3 -28.5023 30.7475 -12.4388
3 -31.4103 31.3964 -15.5599
3 -25.1589 31.3555 -15.9634
3 -25.5027 25.0982 -9.34743
3 -31.1348 25.5597 -9.19987
1 -28.7178 28.373 -2.79772
1 -28.386 27.9319 3.18665
1 -28.398 22.2146 -3.04814
4 -28.323 33.8095 2.75253
2 -31.6204 25.0007 -6.17093
2 -31.5983 31.2971 -6.39481
2 -31.6861 24.9762 0.0387929
2 -31.6145 31.4237 7.7503e-05
3 -32.465 28.2731 -5.82627
3 -28.447 25.7372 -5.98331
3 -24.7968 28.1132 6.10794
3 -28.4656 30.8362 5.96588
3 -32.1537 28.1583 -0.30537
3 -28.3646 25.4441 -0.00577524
3 -24.9117 28.3907 -0.128287
3 -28.5047 30.7845 0.00649339
3 -31.3087 31.297 -3.26524
3 -25.0685 31.623 -3.1548
3 -25.3529 25.1339 2.98863
3 -31.3945 24.8582 3.15211
1 -28.6094 28.2662 9.38322
1 -27.9297 27.9406 15.7359
1 -28.4665 21.7085 9.32508
4 -28.4516 33.4175 15.6729
2 -31.5863 24.9417 6.17535
2 -31.5685 31.2503 6.29379
2 -31.3621 25.1968 12.6891
2 -31.6203 31.1204 12.5171
3 -31.7868 28.1949 6.41776
3 -28.4923 25.659 6.28149
3 -24.7185 28.275 18.2778
3 -28.524 30.6663 18.916
3 -32.0892 28.1737 12.5515
3 -28.2844 25.7165 12.3731
3 -24.7222 28.1956 13.0059
3 -28.4569 30.8707 12.6332
3 -31.2935 30.9633 9.47061
3 -25.4984 30.7842 9.27395
3 -25.5628 24.5479 15.7984
3 -31.1986 24.944 15.8346
1 -28.0879 27.9692 22.276
1 -27.8153 27.9947 28.3858
1 -28.2885 21.7393 21.8935
4 -27.8218 33.8775 27.9775
2 -31.5094 24.9415 18.9287
2 -31.8849 31.1846 18.8756
2 -31.2183 25.021 25.2178
2 -31.2018 31.3088 25.2386
3 -32.3127 28.1572 18.9271
3 -28.5115 25.4318 19.1582
3 -25.1439 28.3138 31.1905
3 -28.0954 31.2567 31.0342
3 -31.2553 28.1743 25.1693
3 -28.023 25.3081 25.3964
3 -24.3164 28.1866 25.1586
3 -28.0339 30.6337 25.1871
3 -31.1741 30.893 22.0011
3 -24.9898 30.5639 21.8889
3 -24.7048 24.9343 28.3691
3 -31.5195 25.0171 28.2062
4 -28.07 28.0266 34.1862
4 -28.186 21.4894 34.2161
2 -31.4185 25.22 31.2529
2 -31.2615 31.413 31.5016
3 -31.4637 28.2895 31.633
3 -28.258 24.9993 30.9601
3 -30.7208 31.1357 34.753
3 -25.3096 31.6459 34.6247
4 -22.1024 34.0665 -34.1848
3 -19.1269 34.9107 -31.3608
3 -19.4491 31.2172 -34.953
3 -25.0624 31.378 -34.8866
4 -22.0877 34.4495 -28.1129
4 -22.0443 34.3093 -21.9282
1 -21.8583 27.9547 -28.5081
2 -25.0376 31.3965 -31.4396
2 -25.2226 31.4149 -25.133
3 -25.277 34.8386 -31.1292
3 -22.1729 30.8764 -31.8244
3 -19.0304 35.2845 -19.5514
3 -25.4079 34.6733 -25.3316
3 -21.9794 31.7963 -25.1124
3 -19.2382 34.8788 -25.1339
3 -18.874 31.2191 -22.1481
3 -24.9698 31.5833 -21.9953
4 -22.0296 34.39 -15.6913
4 -22.4044 34.0287 -9.72816
1 -22.4831 28.4446 -15.8269
2 -25.5332 31.6079 -19.0669
2 -25.3031 31.2455 -12.7568
3 -25.4009 34.7664 -19.2102
3 -22.1975 31.9283 -18.8575
3 -18.991 34.6998 -6.63987
3 -26.1565 34.4081 -12.5058
3 -22.2699 31.2428 -13.0017
3 -19.3821 34.7768 -12.7336
3 -19.0584 31.0868 -9.78197
3 -25.2161 31.2536 -9.55634
4 -22.0094 34.1879 -3.2644
4 -21.4775 34.1883 3.02706
1 -22.579 28.35 -3.20692
2 -25.0872 31.3825 -6.37268
2 -25.2851 31.7024 -0.0387142
3 -25.152 34.6458 -5.98681
3 -22.067 31.7619 -6.69147
3 -18.1567 34.4467 6.26123
3 -25.5598 34.7415 -0.185887
3 -22.2174 31.773 -0.0646977
3 -18.5245 34.3378 0.202691
3 -18.8856 30.8748 2.95034
3 -24.9297 31.3619 3.07442
4 -22.1643 34.9014 9.07212
4 -21.838 34.1221 15.9283
1 -22.0872 28.4697 9.65652
2 -25.1881 31.2799 6.10109
2 -25.0326 31.2599 12.322
3 -25.6726 34.7242 6.2731
3 -22.1231 32.198 6.4055
3 -18.9886 35.0909 18.7965
3 -25.695 34.3793 12.5701
3 -22.0214 31.9617 12.4229
3 -18.1056 34.4621 12.8521
3 -18.768 31.3186 15.6984
3 -25.0796 31.6426 15.6758
4 -22.2214 34.8261 21.9527
4 -21.7802 34.1344 28.3719
1 -21.7431 28.4726 22.0102
2 -25.4497 31.295 18.799
2 -25.0151 31.5077 24.8474
3 -26.0983 34.7351 18.4818
3 -22.397 31.9013 19.0635
3 -18.6805 34.7965 31.0055
3 -25.323 34.6667 24.7689
3 -21.9743 32.2355 24.8143
3 -18.8763 34.6353 24.7988
3 -19.2507 31.2129 28.1705
3 -24.9324 31.3486 28.01
4 -22.1358 34.5902 33.8163
4 -21.7713 27.7402 34.0465
2 -24.9449 31.3876 31.2557
3 -24.9262 34.7343 30.8823
3 -21.9128 31.0099 31.9202
4 -15.6528 34.274 -28.5509
4 -15.6311 34.6291 -15.9406
4 -15.5743 33.8706 -3.37575
4 -15.8677 33.4838 9.84277
4 -15.8869 34.1038 21.631
4 -15.8407 34.288 33.8693
4 -34.2525 9.38277 -34.4222
4 -34.4724 15.7682 -33.9537
3 -31.2952 9.65408 -31.9255
3 -34.9462 12.389 -31.9121
3 -31.2474 6.2659 -35.3323
4 -33.8744 9.45274 -28.7421
4 -33.344 9.12231 -22.2581
4 -34.3724 2.86218 -28.6951
4 -33.9209 15.5999 -22.0029
3 -35.1 6.52493 -31.4725
3 -30.467 9.43045 -19.1633
3 -34.3471 12.4068 -19.5769
3 -34.331 6.33656 -25.3369
3 -30.6902 9.28794 -25.8826
3 -34.5197 12.6079 -25.1114
3 -31.5817 12.5445 -28.64
3 -31.058 5.86049 -22.3831
4 -33.4847 9.6843 -16.1396
4 -33.7241 9.30134 -10.0846
4 -33.7461 3.76535 -16.2108
4 -33.844 15.258 -9.33954
3 -34.121 6.86617 -19.0215
3 -30.7853 9.44964 -6.53062
3 -34.7128 12.0913 -7.38876
3 -34.3476 6.84673 -13.4541
3 -30.6712 9.36099 -12.9054
3 -34.2675 12.0385 -13.0679
3 -31.0799 12.5813 -15.9919
3 -30.8102 6.39475 -9.72873
4 -34.1203 9.44753 -3.88009
4 -33.6419 9.71965 3.07031
4 -33.833 3.14492 -3.13992
4 -34.1178 15.9049 3.05846
3 -34.2252 6.19403 -6.73927
3 -30.8539 9.58168 6.26208
3 -34.8226 12.2803 6.21247
3 -34.4809 6.60953 0.195444
3 -30.2322 9.44545 -0.044678
3 -34.8411 12.3839 -0.200907
3 -31.4773 12.2228 -3.10731
3 -30.748 6.44524 3.13174
4 -34.0747 9.35094 9.30935
4 -34.2012 9.25897 15.7967
4 -33.7521 3.06262 9.16873
4 -33.9558 15.8534 15.4157
3 -34.3841 7.09207 6.07668
3 -31.3104 9.52119 18.9021
3 -34.3893 12.9122 18.6131
3 -34.7701 6.61756 11.9261
3 -31.0871 9.53759 12.5924
3 -34.6752 11.9744 12.7593
3 -31.5422 12.4745 9.41265
3 -31.1905 6.58317 15.6549
4 -34.0325 9.42821 22.6319
4 -33.7708 9.29071 28.4128
4 -33.5982 2.83759 22.0353
4 -34.1286 15.392 28.5707
3 -34.665 6.38177 18.6961
3 -31.1075 9.25938 31.5078
3 -34.8912 12.7049 31.5636
3 -34.4303 6.36686 25.576
3 -30.8712 9.23847 25.2664
3 -34.4579 12.2786 25.6738
3 -31.373 12.6966 22.1973
3 -31.0429 5.79728 28.4193
4 -34.3248 9.34576 34.0852
4 -33.5364 3.07172 34.2712
3 -34.5164 6.06357 31.3949
3 -32.1599 12.4131 34.8203
4 -28.4296 15.5647 -34.4145
4 -28.3784 21.7112 -34.5673
3 -25.4719 15.9761 -31.7383
3 -28.3939 18.7959 -31.9991
3 -25.4424 13.13 -35.1258
3 -31.6691 12.8069 -35.0775
1 -28.4624 16.0065 -28.6086
1 -27.5915 15.4989 -22.336
1 -27.7826 9.63682 -28.8183
1 -28.1622 21.6492 -22.1534
2 -31.5869 12.754 -31.9036
2 -31.4797 18.8407 -31.6525
2 -31.2992 12.4593 -25.494
2 -31.5002 18.9171 -25.1054
3 -31.5478 15.7785 -31.3505
3 -28.2797 12.7162 -31.6311
3 -24.3319 15.7516 -19.5985
3 -28.3914 18.4564 -19.5563
3 -31.2856 15.5558 -25.3329
3 -27.9992 12.9098 -25.7933
3 -24.8652 15.6567 -25.5197
3 -28.3722 18.6728 -24.9848
3 -30.9339 18.8814 -28.4972
3 -25.7497 18.977 -28.6626
3 -25.2881 12.2504 -22.3629
3 -30.5045 12.253 -22.5617
1 -28.6121 15.7529 -15.929
1 -28.0557 15.3445 -9.41652
1 -27.9627 10.4077 -15.9212
1 -28.1052 21.2722 -9.60058
2 -31.0449 12.6032 -19.3181
2 -31.5429 19.0274 -18.8226
2 -31.082 12.4337 -12.7729
2 -31.2598 18.7284 -12.5787
3 -31.4826 15.6533 -18.897
3 -27.9275 13.2384 -18.8432
3 -24.5477 15.7507 -6.6491
3 -28.1292 17.9796 -6.54047
3 -31.7311 15.5951 -12.6168
3 -28.1271 13.3694 -12.8749
3 -24.2484 15.7493 -12.2984
3 -27.8863 18.0446 -12.046
3 -30.8233 18.9877 -15.6964
3 -25.808 18.147 -16.0865
3 -25.8508 12.2496 -9.60877
3 -30.6269 12.4279 -9.58192
1 -27.7143 15.7298 -2.9652
1 -27.97 15.7264 2.97009
1 -28.3886 9.59508 -3.40985
1 -28.1867 21.6151 2.91124
2 -31.7592 12.4992 -6.14503
2 -31.3724 18.8993 -6.3514
2 -31.4325 12.3885 0.0596007
2 -31.3308 18.9187 -0.0960754
3 -31.9388 15.7095 -6.06999
3 -28.3344 13.1412 -6.10716
3 -24.876 15.8624 5.84367
3 -28.4084 18.2836 5.88982
3 -31.3344 15.6861 -0.19113
3 -27.9942 12.8795 0.204663
3 -24.2331 15.8305 0.0570951
3 -27.9149 18.7979 0.0151754
3 -31.0817 19.0144 -3.2492
3 -24.9585 18.6612 -3.5179
3 -24.9409 12.3027 3.08008
3 -31.1801 13.0511 3.2729
1 -28.6042 15.897 9.23871
1 -27.8634 15.5416 16.0183
1 -28.3933 9.98858 9.56194
1 -28.4092 21.8223 15.9109
2 -31.4585 12.5973 6.34191
2 -31.4726 18.8352 5.9158
2 -31.4429 12.6048 12.4002
2 -31.1709 18.8867 12.6357
3 -31.6103 15.6734 6.44676
3 -27.9836 13.0978 6.41785
3 -24.7671 15.936 18.9292
3 -28.2072 18.716 18.7043
3 -31.7506 15.6396 12.3697
3 -28.1429 13.2347 12.2033
3 -24.1682 15.7669 13.3521
3 -28.2679 17.9807 12.8538
3 -31.3397 18.9898 9.11187
3 -25.4694 18.7569 9.42733
3 -25.3803 12.3927 15.9233
3 -30.8482 12.6204 15.7031
1 -28.1786 15.8192 22.1634
1 -28.5113 15.3573 28.3733
1 -28.5085 9.30868 22.1775
1 -28.2479 21.7213 28.294
2 -31.2303 12.6455 19.027
2 -31.3521 18.8779 18.9213
2 -31.3308 12.4458 25.3907
2 -31.3875 18.7188 25.0955
3 -31.4196 15.7517 18.995
3 -28.2282 12.7293 19.5973
3 -24.7549 15.542 30.8915
3 -28.0839 18.7575 31.3684
3 -31.7435 15.5242 25.4996
3 -28.2276 13.0343 25.1489
3 -24.57 15.6262 25.7778
3 -28.2021 18.59 25.4064
3 -31.0996 18.9528 22.0491
3 -25.4417 18.5937 22.1042
3 -25.4435 12.0837 28.3269
3 -30.7838 12.1062 28.5161
4 -27.9562 15.9912 34.3272
4 -28.3182 9.27547 34.4099
2 -31.3668 12.5026 31.7198
2 -31.3489 18.8395 31.8187
3 -31.3694 15.5417 31.4499
3 -28.2706 12.7244 31.9008
3 -31.5521 19.5191 35.0052
3 -25.0265 18.677 34.5527
4 -22.1533 22.3795 -34.2216
4 -22.5172 27.951 -34.55
3 -18.6567 22.0507 -32.125
3 -22.02 25.3933 -31.4688
3 -19.3574 18.8304 -35.1594
3 -24.84 19.4512 -35.0927
1 -21.7083 21.9007 -28.5447
1 -22.213 22.0971 -22.5481
1 -22.2057 15.7516 -28.9306
1 -21.9347 28.6923 -22.2862
2 -25.1882 19.0146 -31.9022
2 -25.1968 25.0466 -31.7528
2 -25.2792 18.8248 -25.5313
2 -25.3755 24.9867 -25.3791
3 -24.9116 22.1131 -31.1462
3 -22.0058 18.8794 -31.6167
3 -18.3101 22.2277 -19.2068
3 -22.0396 24.4928 -19.4068
3 -25.6523 21.7797 -25.5997
3 -22.1021 19.0482 -25.7021
3 -18.3658 21.8137 -25.147
3 -22.0167 24.6822 -25.6392
3 -25.1966 25.5736 -28.6062
3 -19.1132 24.8449 -28.6662
3 -19.8002 18.6403 -22.2132
3 -24.9734 18.9366 -22.27
1 -22.305 22.3758 -16.2705
1 -21.157 21.5988 -9.47242
1 -22.2672 15.9742 -16.2285
1 -22.5577 28.178 -9.70113
2 -25.2366 18.8212 -18.9922
2 -25.0887 25.1633 -19.1542
2 -25.0143 18.8381 -13.0656
2 -25.4879 24.8368 -12.7269
3 -25.6706 21.9656 -18.8828
3 -22.0129 19.629 -19.0445
3 -18.1 21.891 -6.51406
3 -22.2254 24.4901 -6.65299
3 -25.8743 21.7303 -13.1148
3 -21.8148 19.2817 -13.0733
3 -18.5645 21.9989 -12.4862
3 -22.3947 24.5838 -12.0418
3 -25.2112 25.1113 -15.9259
3 -19.4263 24.8625 -15.985
3 -18.8402 18.501 -9.53101
3 -24.4933 19.3415 -9.68579
1 -22.2499 22.3722 -3.10382
1 -21.7232 21.5898 2.699
1 -22.076 16.1446 -3.47285
1 -22.4605 28.0909 2.78683
2 -24.9022 18.9064 -6.47878
2 -25.4017 25.0292 -6.14861
2 -24.8468 19.0184 0.0412705
2 -25.1526 25.2153 -0.170664
3 -26.0452 21.9184 -6.3817
3 -21.4988 19.5021 -6.05875
3 -18.299 21.8465 6.06836
3 -22.2341 24.0244 6.10094
3 -25.4658 22.0246 -0.333575
3 -21.7364 19.4137 -0.655045
3 -18.1373 22.0191 0.348601
3 -22.2029 24.7154 -0.0976415
3 -25.1721 25.2139 -3.17089
3 -19.2293 25.1277 -3.28512
3 -19.2174 18.6349 3.13305
3 -24.8868 19.1327 3.17506
1 -22.1891 22.3168 9.49739
1 -21.5431 21.9646 15.7769
1 -22.2684 16.2921 9.7975
1 -22.032 28.0909 15.8529
2 -25.2285 19.0128 6.38062
2 -25.5552 25.0905 6.33866
2 -25.1196 18.8242 12.7025
2 -25.2688 24.8916 12.5729
3 -26.2136 21.9683 6.25864
3 -22.0403 19.6189 6.73789
3 -18.2909 22.0507 18.947
3 -22.2007 24.8687 18.4988
3 -26.2565 21.9102 12.5281
3 -21.97 19.8088 12.3327
3 -18.6992 22.1371 12.9333
3 -22.2644 24.4487 12.8854
3 -25.192 25.4334 9.59885
3 -19.088 25.328 9.40673
3 -19.1199 18.8809 15.8485
3 -24.7125 19.203 15.7513
1 -21.9255 22.5308 21.9242
1 -21.414 21.7852 28.3574
1 -22.244 16.1362 22.1993
1 -21.3183 27.7725 28.2598
2 -24.8955 18.9026 18.8094
2 -25.3415 25.2153 18.9965
2 -25.0081 18.7002 25.2893
2 -24.9517 25.1359 25.2237
3 -25.2065 22.0524 19.316
3 -21.8501 19.4955 19.399
3 -18.4841 21.8665 31.5256
3 -21.7367 24.9076 31.2358
3 -25.3872 22.1218 24.464
3 -22.0299 19.6823 24.7612
3 -18.1299 21.8831 25.5312
3 -21.7385 24.6179 25.3306
3 -24.7301 25.3354 22.0525
3 -18.9076 25.1998 22.0743
3 -19.1589 18.7071 28.2702
3 -24.7735 19.4377 28.1517
4 -21.5938 21.7178 33.9205
4 -21.7684 15.816 34.2428
2 -24.796 18.6363 31.3404
2 -25.0184 24.9646 31.6442
3 -24.9685 21.976 31.4212
3 -21.8019 18.7737 31.3864
3 -24.829 25.3339 34.6256
3 -18.6004 25.437 34.8466
4 -15.806 28.2386 -34.127
4 -15.9776 34.3997 -34.2303
3 -12.4661 28.2026 -31.5052
3 -15.9242 31.3209 -31.8964
3 -12.833 25.6071 -35.1231
3 -19.0421 25.5843 -34.6472
1 -15.9204 28.5732 -28.4063
1 -15.9306 28.3495 -22.5216
1 -15.6964 22.1898 -28.3042
4 -16.1502 34.3146 -22.0956
2 -18.7743 25.2455 -31.6893
2 -19.0054 31.5453 -31.4997
2 -18.9285 25.1535 -25.4197
2 -18.914 31.7049 -25.3561
3 -18.8182 28.3565 -31.4303
3 -15.5857 25.4891 -31.2737
3 -12.0243 28.5032 -19.1432
3 -15.7859 31.1031 -19.0414
3 -19.2797 28.3887 -25.5381
3 -15.9264 25.3806 -26.0036
3 -13.1651 28.3881 -25.6425
3 -15.9149 31.8932 -25.3577
3 -19.0211 31.601 -28.4787
3 -12.4883 31.4873 -28.7025
3 -12.9271 25.6535 -22.2195
3 -19.0664 25.3035 -22.2437
1 -15.7198 28.4848 -16.0067
1 -15.9903 28.2357 -9.2845
1 -15.6181 22.3749 -15.6863
4 -16.1933 34.5089 -9.78385
2 -19.0458 25.2866 -19.0448
2 -18.9179 31.7464 -19.1127
2 -19.3712 25.0245 -12.6946
2 -19.021 31.3273 -12.8781
3 -19.7983 28.4078 -18.8097
3 -15.9106 26.0802 -19.0537
3 -12.4512 28.01 -6.48946
3 -15.9955 31.3343 -6.61939
3 -19.3995 28.1959 -13.2067
3 -15.9952 25.477 -13.0877
3 -12.6326 28.3347 -12.9751
3 -15.8981 31.6349 -12.7339
3 -18.8369 32.1091 -16.0582
3 -12.8086 31.4052 -16.0197
3 -13.1058 24.8837 -9.51318
3 -18.4724 25.1029 -9.42825
1 -16.3831 28.2464 -3.26674
1 -15.5427 27.7999 3.14566
1 -16.0032 22.3899 -3.2028
4 -15.9048 33.6794 3.22409
2 -19.0476 24.8671 -6.43611
2 -18.9931 31.282 -6.51614
2 -18.9333 25.1202 -0.0832746
2 -18.9973 31.1918 -0.232782
3 -19.5844 28.2384 -6.41139
3 -15.9165 25.4558 -6.00977
3 -12.4601 27.9703 6.16285
3 -15.8456 30.8275 6.22658
3 -19.9995 28.2929 -0.54328
3 -15.8059 25.6098 -0.481762
3 -12.34 28.0092 0.180639
3 -15.9273 30.4094 -0.00261627
3 -18.8061 31.5427 -3.2365
3 -13.2189 30.6524 -3.16618
3 -13.4671 24.337 3.12394
3 -18.7736 25.5578 3.06689
1 -15.7102 28.2387 9.27876
1 -15.6425 28.3532 15.8748
1 -16.3765 22.5023 9.6463
4 -15.59 34.4432 16.0373
2 -19.3507 25.0688 6.16419
2 -18.8839 31.1399 6.1697
2 -19.0262 25.3636 12.6581
2 -18.6806 31.5028 12.6159
3 -20.0845 28.1451 6.11669
3 -16.2314 25.5003 6.52879
3 -12.7269 27.9311 19.2678
3 -15.857 30.9473 18.8404
3 -19.5216 28.3791 12.8318
3 -15.8927 25.8889 12.5672
3 -11.9147 28.0316 12.6159
3 -15.658 30.4373 12.2941
3 -19.0857 31.1062 9.58443
3 -12.5585 31.2236 9.27521
3 -12.9243 25.0591 15.8305
3 -19.0238 25.3436 15.9088
1 -16.156 28.5773 21.8416
1 -15.5619 28.2206 28.5438
1 -15.5128 22.1316 22.1478
4 -15.7485 34.3344 27.7404
2 -18.8671 25.3211 18.9976
2 -19.2365 31.7936 18.9337
2 -18.6577 25.0594 25.1742
2 -19.0473 31.5859 25.1462
3 -19.2509 28.3973 19.0872
3 -15.9196 25.3982 19.4199
3 -12.6231 28.2687 31.3443
3 -15.627 31.3741 31.2157
3 -19.106 28.4346 25.0054
3 -15.5524 25.853 24.9615
3 -12.1124 28.2007 25.455
3 -15.906 30.9356 25.1197
3 -18.8966 31.6521 21.8968
3 -12.9382 31.1294 22.0841
3 -13.1155 24.915 28.4069
3 -18.3678 25.1983 28.3267
4 -15.8188 28.6259 34.5107
4 -15.594 21.7899 34.3927
2 -18.5504 25.0459 31.3899
2 -18.8868 31.5059 31.2707
3 -18.5777 28.1788 31.4489
3 -15.5123 25.0463 32.2024
3 -18.4867 31.8318 34.8598
3 -12.8794 31.3424 34.7472
4 -9.4057 34.2829 -34.3472
3 -6.37463 34.9769 -31.6495
3 -6.48158 31.4774 -35.0842
3 -12.7125 31.5331 -35.0667
4 -9.56653 34.3282 -28.6095
4 -9.25186 34.1657 -21.8571
1 -9.56399 28.2937 -28.8577
2 -12.7184 31.3042 -31.8837
2 -12.7683 31.6001 -25.4696
3 -12.8075 35.0651 -31.724
3 -9.53097 31.1836 -31.7716
3 -5.96626 34.709 -18.8881
3 -12.649 34.8742 -25.7032
3 -9.65398 31.5487 -25.5906
3 -6.4747 34.786 -25.8364
3 -6.63991 31.2215 -22.1469
3 -12.4642 31.6169 -22.204
4 -9.43855 34.7035 -15.5244
4 -9.20442 33.7689 -9.39526
1 -9.70757 28.3487 -15.7478
2 -12.4381 31.5878 -18.995
2 -12.82 32.0302 -12.6579
3 -13.2819 34.7011 -19.4728
3 -9.39178 31.9551 -18.3676
3 -5.99075 34.1462 -6.24978
3 -12.6873 35.1423 -12.6871
3 -9.68574 31.3528 -12.9277
3 -6.15965 34.6207 -12.567
3 -6.55775 30.8752 -9.68579
3 -12.7959 31.6726 -9.63224
4 -9.1804 33.9872 -3.40231
4 -9.66633 34.0211 3.28503
1 -9.76112 28.2127 -3.38514
2 -12.7377 31.1751 -6.34821
2 -12.8522 31.1504 0.0232536
3 -12.697 34.7488 -6.29396
3 -9.6266 31.2152 -6.27583
3 -6.22674 34.6121 6.0926
3 -13.6511 34.4667 0.0500683
3 -9.68293 31.7245 -0.32301
3 -6.19723 34.2692 0.224966
3 -7.00762 30.7444 3.1338
3 -12.713 31.3105 3.10829
4 -9.45788 34.1294 9.49422
4 -9.533 33.8898 15.7401
1 -9.63808 28.0139 9.24987
2 -12.7538 31.3293 6.14832
2 -12.6043 31.3757 12.4902
3 -12.8344 34.4068 6.71723
3 -9.67574 31.1521 6.36158
3 -6.3451 34.4542 19.0585
3 -13.3747 34.4233 13.0457
3 -9.53404 31.7503 12.2792
3 -6.27984 34.8418 12.6754
3 -6.54037 31.1214 15.7891
3 -12.639 31.2554 15.7418
4 -9.47911 33.9681 22.1737
4 -9.17215 34.3225 29.1247
1 -9.62611 28.4289 22.0927
2 -12.723 31.3686 18.8778
2 -12.7836 31.186 25.1827
3 -12.6915 34.656 19.0371
3 -9.47151 31.3349 19.1347
3 -6.30199 34.3871 32.0444
3 -12.9525 34.5917 24.4517
3 -9.57667 31.9321 25.4229
3 -6.00685 34.2867 25.4855
3 -6.67143 31.0504 28.6755
3 -12.3929 31.5429 28.3243
4 -9.38709 34.0841 34.4589
4 -9.33404 27.7891 34.2286
2 -12.5797 31.4793 31.454
3 -12.5079 34.7823 31.5307
3 -9.41294 31.1394 31.7412
4 -3.44542 34.058 -28.4826
4 -3.08735 34.2227 -16.1659
4 -3.58503 33.3703 -2.98414
4 -3.33249 33.697 9.13226
4 -3.60308 33.8414 22.0927
4 -3.09445 33.4703 34.1807
4 -34.0936 -3.42295 -34.4154
4 -33.7857 3.10475 -34.7232
3 -31.339 -2.93573 -31.3662
3 -34.3925 0.0700496 -32.0838
3 -31.3534 -5.8665 -34.9615
4 -33.77 -3.08106 -28.2027
4 -33.5851 -2.91159 -22.2048
4 -34.1376 -9.0107 -27.896
4 -33.9588 3.10265 -22.4891
3 -34.4694 -5.94282 -31.6997
3 -30.8441 -2.86176 -18.9813
3 -34.6671 0.16336 -18.611
3 -34.6307 -6.2786 -24.895
3 -31.0414 -3.34537 -25.5523
3 -34.6748 -0.0150874 -25.351
3 -30.6924 -0.0814709 -28.4181
3 -30.8087 -6.18729 -21.9724
4 -33.7634 -2.92623 -15.8044
4 -34.516 -3.09516 -9.71951
4 -33.9694 -9.42022 -15.8007
4 -33.8229 3.10697 -9.43527
3 -34.3885 -6.13552 -19.3667
3 -31.3809 -3.05903 -6.03326
3 -34.5696 0.302595 -6.28218
3 -34.5614 -5.83391 -12.7085
3 -30.484 -2.95168 -12.4359
3 -34.6441 -0.174743 -12.4972
3 -31.109 0.161478 -15.6307
3 -31.5236 -6.08135 -9.23653
4 -34.1958 -3.12762 -2.96571
4 -33.909 -2.70774 3.234
4 -34.0063 -9.48513 -3.13684
4 -33.7017 3.60347 3.25645
3 -35.0239 -5.87959 -5.97192
3 -30.5805 -3.03105 6.16792
3 -34.7439 -0.0355576 6.0974
3 -34.317 -5.36876 0.320083
3 -30.6885 -2.93954 0.295199
3 -34.7147 -0.125988 0.0777994
3 -31.3409 -0.0357345 -3.08687
3 -30.9759 -6.35562 3.21808
4 -33.7804 -3.20958 9.86404
4 -33.9883 -2.99978 15.9571
4 -33.753 -9.05904 9.44692
4 -34.0501 3.05115 15.985
3 -34.2865 -6.10727 6.84164
3 -31.2514 -3.00838 19.0061
3 -34.5224 0.115379 18.7388
3 -34.2495 -6.30143 12.9498
3 -31.0148 -2.93297 12.8982
3 -34.8441 0.0859508 12.3216
3 -31.3194 -0.145417 9.48874
3 -30.9365 -6.16918 15.7378
4 -34.4921 -3.00301 21.9085
4 -33.8336 -2.53093 28.053
4 -34.0952 -9.02254 22.0537
4 -33.9114 3.2818 28.082
3 -34.8702 -6.08591 19.0574
3 -31.492 -3.1644 31.4217
3 -34.7586 0.116109 31.1251
3 -34.8552 -5.53086 25.0174
3 -30.4442 -3.17404 25.4096
3 -34.5489 -0.00313666 25.0499
3 -31.1102 0.0401189 21.9529
3 -31.3849 -6.18522 28.3195
4 -34.7248 -3.06975 33.6838
4 -34.9197 -8.99228 33.8181
3 -34.89 -5.98707 30.9659
3 -31.4944 -0.396815 34.9582
4 -28.1153 3.22039 -34.4275
4 -28.0177 9.99579 -34.4869
3 -25.4087 3.15253 -31.6487
3 -28.2077 6.59072 -31.77
3 -25.5161 0.171589 -35.031
3 -31.1797 -0.193216 -34.6502
1 -28.2331 3.05266 -28.2054
1 -27.7611 2.9288 -22.1582
1 -28.0954 -3.15487 -28.6167
1 -27.9443 8.91416 -22.7415
2 -31.3082 0.105581 -31.5032
2 -31.222 6.39815 -32.0416
2 -31.1252 -0.106887 -25.3488
2 -31.1214 6.15245 -25.6289
3 -31.5602 3.25524 -31.721
3 -28.0971 -0.153436 -31.8628
3 -24.6089 3.13578 -18.9895
3 -27.8928 5.82635 -19.6566
3 -31.4534 2.94678 -25.701
3 -27.9332 0.0761384 -25.2999
3 -24.4753 3.18624 -25.1524
3 -28.093 5.74961 -25.3479
3 -31.3691 6.30742 -28.6534
3 -25.1708 6.15385 -28.5408
3 -25.0159 -0.0399626 -22.1512
3 -30.8729 0.340596 -22.0998
1 -27.7664 3.31842 -16.2318
1 -27.7604 3.17666 -9.58561
1 -27.8881 -2.36982 -15.4853
1 -28.0681 9.16846 -9.56916
2 -30.8781 0.294573 -18.7808
2 -30.8538 6.34229 -19.0859
2 -31.4759 0.199254 -12.4786
2 -31.1441 6.21408 -13.0489
3 -31.3005 3.28549 -18.9255
3 -27.8805 0.411354 -18.9113
3 -24.572 3.14844 -6.99207
3 -27.8896 6.03292 -6.12764
3 -31.8355 3.26098 -12.5726
3 -27.9914 0.69918 -12.9484
3 -24.5504 3.14828 -12.6225
3 -27.959 5.37331 -12.7968
3 -30.425 6.57619 -15.9884
3 -25.008 6.2269 -15.9369
3 -25.0753 -0.277615 -9.36121
3 -31.4721 -0.465365 -9.3018
1 -28.2579 3.47082 -3.10701
1 -28.3228 3.33125 3.27181
1 -28.3134 -3.11935 -3.27952
1 -27.9361 9.78258 3.04543
2 -31.1847 0.219703 -6.45177
2 -31.0511 6.16368 -6.53412
2 -31.2168 0.050305 0.101599
2 -31.0684 6.37798 -0.100566
3 -30.8464 3.18204 -6.82974
3 -28.0846 0.0358013 -6.51688
3 -24.0392 3.45386 5.66146
3 -27.7073 5.74571 6.26694
3 -31.3721 3.44197 0.159723
3 -28.23 0.549414 -0.311639
3 -24.5516 3.30888 0.374605
3 -27.9128 5.72768 -0.0857171
3 -31.1473 6.39103 -3.22675
3 -24.7303 5.8575 -3.29416
3 -24.932 -0.287533 3.15786
3 -31.037 0.18822 3.25916
1 -28.2249 3.54494 9.78185
1 -28.3445 3.2486 15.4215
1 -28.0113 -2.96735 9.14156
1 -28.2221 9.28015 15.7998
2 -31.6611 0.0124098 6.32549
2 -31.2093 6.2757 6.30884
2 -31.1207 0.217682 12.5946
2 -31.7351 6.57054 12.5035
3 -31.391 3.29257 6.32406
3 -28.077 0.626129 6.7078
3 -24.9842 3.33728 18.2924
3 -28.3521 6.306 18.8543
3 -31.7043 3.37465 12.5722
3 -27.9328 0.442487 12.7991
3 -24.627 3.30562 12.855
3 -28.3672 6.19522 12.5697
3 -30.9374 6.3572 9.41119
3 -24.7639 6.31965 9.51626
3 -25.1769 -0.169557 15.7912
3 -31.2504 0.0988322 15.8024
1 -27.8782 3.52664 21.7163
1 -27.9429 2.94607 28.6811
1 -28.3832 -3.65963 21.9751
1 -28.1865 9.12729 27.9379
2 -31.24 0.019789 18.784
2 -31.5269 6.48104 19.1391
2 -31.0412 0.0819007 25.2109
2 -31.3048 6.15088 25.3743
3 -31.3768 3.42889 18.707
3 -27.9962 0.424008 18.6586
3 -24.9405 3.06142 31.6377
3 -28.1782 6.38927 31.7011
3 -31.2897 3.12969 25.1255
3 -27.9365 0.790038 25.084
3 -24.0585 3.09673 25.7581
3 -27.9846 5.62727 25.3248
3 -31.0607 6.23001 22.2241
3 -24.9168 6.13447 22.09
3 -25.0462 -0.214498 28.4887
3 -30.7347 0.00577875 28.5083
4 -27.5544 3.40199 34.4324
4 -28.4666 -3.08117 34.3623
2 -31.1059 -0.129521 31.7131
2 -31.3478 6.03583 31.4971
3 -30.7877 2.93394 31.5575
3 -27.9655 -0.00799464 31.7573
3 -31.374 6.40238 34.8941
3 -24.7924 6.80162 35.009
4 -21.6556 8.85313 -35.2873
4 -22.1485 16.1547 -34.4197
3 -18.857 9.54482 -32.1052
3 -22.1755 12.6529 -32.0503
3 -19.0053 6.07689 -35.5501
3 -24.6825 6.45622 -34.9773
1 -21.6298 9.35134 -29.2102
1 -21.5211 9.29313 -22.6647
1 -21.7306 3.38495 -28.5561
1 -21.6683 15.1858 -22.6247
2 -25.1261 6.27126 -31.9708
2 -25.2639 12.576 -32.0541
2 -24.9966 6.25426 -25.5138
2 -24.8547 12.6441 -25.6927
3 -24.8884 9.27482 -31.8656
3 -21.8844 6.21253 -31.5837
3 -18.3435 9.46348 -19.6131
3 -21.889 12.1193 -19.8308
3 -25.1416 9.43262 -25.7539
3 -21.863 6.71183 -26.2284
3 -18.2979 9.29783 -25.5186
3 -21.8635 12.1192 -25.6023
3 -24.825 12.6292 -28.984
3 -19.0173 12.4082 -28.859
3 -19.1057 6.2534 -22.4639
3 -24.1987 6.39566 -22.3518
1 -22.3415 9.75862 -16.153
1 -21.5669 9.29197 -9.45137
1 -21.9115 3.51282 -15.9532
1 -21.5176 15.6537 -9.82515
2 -24.7953 6.44727 -19.1536
2 -24.8121 12.5469 -19.1267
2 -24.8143 6.2985 -12.6306
2 -25.0816 12.6213 -12.6816
3 -25.7585 9.4479 -19.1039
3 -21.7281 6.68557 -18.5799
3 -18.1253 9.47952 -7.29165
3 -21.8292 12.2852 -6.93871
3 -25.5729 9.46957 -13.0743
3 -21.6382 7.16059 -12.8309
3 -17.9608 9.36683 -12.7396
3 -21.9076 11.9789 -12.3976
3 -25.0927 13.0382 -16.0617
3 -19.0176 12.1438 -16.273
3 -18.6253 5.72587 -9.57573
3 -25.0867 6.88876 -9.48983
1 -22.4777 9.39698 -3.4542
1 -21.3051 9.20155 3.28397
1 -21.6986 3.34917 -3.31139
1 -21.6453 15.1425 3.08877
2 -24.781 6.24187 -6.33933
2 -25.1766 12.5804 -6.36493
2 -24.8216 6.46495 0.098213
2 -24.7565 12.6268 -0.0592802
3 -25.5355 9.53764 -6.27264
3 -21.7283 6.62635 -6.23466
3 -17.8686 9.45233 6.05837
3 -21.8067 12.1234 6.21075
3 -25.4084 9.5724 -0.684701
3 -21.8194 6.83591 -0.198137
3 -18.3488 9.50287 0.691488
3 -21.7724 12.041 0.346934
3 -24.6657 12.9857 -3.22903
3 -19.535 12.1367 -3.21184
3 -18.503 5.81941 3.20413
3 -24.9792 7.00556 3.02944
1 -22.0175 9.44118 9.43248
1 -21.0931 9.17931 15.6449
1 -21.586 3.84919 9.26339
1 -21.6756 15.3819 16.289
2 -24.8287 6.38153 6.33638
2 -25.029 12.6326 6.34329
2 -25.2324 6.50408 12.7386
2 -24.9937 12.7764 12.8014
3 -25.19 9.54912 6.81167
3 -21.5653 6.99799 6.6237
3 -18.2117 9.44179 18.3362
3 -21.9033 12.278 18.5622
3 -25.6836 9.59656 12.2894
3 -21.6952 6.5898 12.2335
3 -17.5948 9.30953 12.9865
3 -21.8673 11.9552 13.1041
3 -24.9265 13.1663 9.66802
3 -18.9232 12.2095 9.61076
3 -19.1497 5.84225 15.9259
3 -24.7661 7.40253 15.8142
1 -22.4716 9.42833 22.1592
1 -21.5352 9.65423 28.6397
1 -21.5805 3.39137 22.2001
1 -21.7183 15.0482 28.4673
2 -25.0463 6.50499 18.7682
2 -24.8057 12.8867 19.1706
2 -24.9393 6.09578 25.2535
2 -25.0358 12.3578 25.1589
3 -25.625 9.57516 19.7026
3 -22.0266 6.73761 19.0656
3 -18.7426 9.42933 31.6336
3 -21.8866 12.4455 31.3086
3 -25.5925 9.36455 24.8008
3 -21.9517 6.9684 25.4917
3 -18.2976 9.57564 25.4752
3 -22.0051 11.9293 25.5723
3 -24.4273 12.8631 22.2318
3 -18.9554 11.9175 21.9585
3 -18.7702 6.27205 28.7049
3 -25.185 6.4487 28.4811
4 -21.644 9.32935 34.2489
4 -22.1311 3.39431 34.4116