7407
 Atoms. Timestep: 1102
3 -31.0062 34.6993 -30.9987
3 -31.0814 31.1142 -34.6916
4 -33.9184 34.0707 -28.2576
4 -33.7719 34.1541 -22.0613
4 -34.0673 28.114 -28.3227
3 -34.7 31.1049 -31.0584
3 -31.0776 34.6219 -18.9745
3 -34.6458 31.6188 -25.1374
3 -31.1121 34.5422 -25.1495
3 -31.2779 31.1342 -22.0356
4 -33.7065 34.4039 -15.8169
4 -33.768 34.4041 -9.51674
4 -34.3238 28.0936 -15.82
3 -34.7017 31.874 -18.8471
3 -31.1308 34.748 -6.36572
3 -34.7526 32.0635 -12.6942
3 -31.0925 34.6924 -12.6484
3 -31.4434 31.2549 -9.48226
4 -33.7697 34.5448 -3.19108
4 -33.8427 34.444 3.13578
4 -34.4427 28.194 -3.15312
3 -34.8006 32.1538 -6.2986
3 -31.1616 34.7814 6.26248
3 -34.8167 32.1448 -0.0792731
3 -31.1671 34.782 -0.00479084
3 -31.4918 31.3235 3.12194
4 -33.7487 34.5275 9.44811
4 -33.7344 34.3448 15.7631
4 -34.4126 28.2119 9.36186
3 -34.8008 32.1066 6.35023
3 -31.0792 34.6442 18.9049
3 -34.7673 32.1191 12.5411
3 -31.096 34.714 12.6221
3 -31.3927 31.2014 15.72
4 -33.776 34.2954 22.0496
4 -33.9217 34.0145 28.2945
4 -34.2294 28.1439 22.15
3 -34.7171 31.9639 18.9133
3 -30.9342 34.6268 31.0016
3 -34.6587 31.6156 25.0659
3 -31.1593 34.6234 25.1647
3 -31.2373 31.1823 28.2409
4 -33.8959 28.2286 33.9921
3 -34.5859 30.9967 31.0569
4 -28.226 33.8333 -28.0913
4 -28.3515 33.8723 -15.7831
4 -28.4524 33.9637 -3.18014
4 -28.4207 33.957 9.42094
4 -28.2821 33.8514 21.9881
4 -28.1612 33.9432 33.9459
4 -34.1063 22.1188 -33.9878
4 -34.0608 28.3628 -34.0523
3 -31.2937 22.1192 -31.2841
3 -34.6834 25.237 -31.3777
3 -31.4132 19.0938 -34.69
4 -33.7804 22.0908 -28.0412
4 -33.7082 22.0549 -21.9973
4 -33.9642 15.9611 -28.3821
4 -34.1349 27.8339 -22.0732
3 -34.635 18.9295 -31.4125
3 -30.8478 22.1712 -18.9368
3 -34.6173 24.884 -19.0261
3 -34.4708 19.3956 -25.1754
3 -30.6872 22.0643 -25.1792
3 -34.4807 24.8041 -25.0465
3 -31.2505 25.1921 -28.2932
3 -31.204 18.9266 -22.0095
4 -33.89 22.204 -15.7669
4 -33.8672 22.2216 -9.46828
4 -34.1525 16.4031 -15.7003
4 -34.3029 27.9258 -9.49226
3 -34.5212 19.4801 -18.7416
3 -30.9265 22.3086 -6.40826
3 -34.7345 24.9732 -6.42777
3 -34.5765 19.532 -12.8093
3 -30.895 22.2502 -12.5064
3 -34.6891 24.9305 -12.5773
3 -31.3918 25.2949 -15.752
3 -31.4791 19.0397 -9.4421
4 -33.9819 22.315 -3.17454
4 -33.9123 22.2736 3.11769
4 -34.2422 16.5519 -3.16445
4 -34.3041 28.0181 3.13433
3 -34.6032 19.6209 -6.12423
3 -30.9696 22.313 6.15144
3 -34.7491 25.0596 6.19486
3 -34.6235 19.629 -0.22724
3 -30.9604 22.3264 0.0825546
3 -34.7548 25.041 0.0598897
3 -31.5156 25.4159 -3.16935
3 -31.5334 19.0783 3.11281
4 -33.9665 22.2948 9.41483
4 -33.8114 22.1872 15.6838
4 -34.2231 16.5212 9.38577
4 -34.254 27.8844 15.7414
3 -34.6202 19.6092 6.4726
3 -30.8311 22.2162 18.7444
3 -34.621 24.8602 18.7675
3 -34.5717 19.5911 12.3723
3 -30.8826 22.2869 12.6362
3 -34.6941 24.9273 12.6923
3 -31.5049 25.399 9.40476
3 -31.4236 19.0133 15.6612
4 -33.8299 22.1764 21.9035
4 -33.8289 22.1224 27.9621
4 -34.1305 16.3103 21.8852
4 -33.9597 28.0493 28.2697
3 -34.5316 19.4616 19.0093
3 -31.2146 22.0049 31.1215
3 -34.5646 25.1201 31.2544
3 -34.5254 19.4556 24.8549
3 -30.8229 22.1238 25.169
3 -34.583 25.0256 25.155
3 -31.3401 25.262 21.9684
3 -31.4381 18.8864 28.1839
4 -33.9803 21.9626 33.8823
4 -33.8234 15.7095 34.0095
3 -34.5918 18.7597 31.4282
3 -31.3809 25.0213 34.5985
4 -28.2283 28.2146 -34.0678
4 -28.3232 34.0692 -34.002
3 -25.2068 28.3271 -31.4229
3 -28.3182 31.2703 -31.2763
3 -25.2672 25.2168 -34.7353
3 -31.426 25.189 -34.6684
1 -28.2165 28.2702 -28.4142
1 -28.1122 28.2339 -21.9928
1 -28.2426 22.1106 -28.4866
4 -28.1974 33.7993 -22.0308
2 -31.488 25.222 -31.4529
2 -31.5248 31.5326 -31.491
2 -31.2725 25.1433 -25.146
2 -31.4177 31.3479 -25.1518
3 -31.2828 28.3156 -31.3233
3 -28.3344 25.2021 -31.3803
3 -24.7597 28.3381 -18.9889
3 -28.3659 30.9753 -18.9213
3 -31.7374 28.2391 -25.1698
3 -28.2022 25.8899 -25.2745
3 -24.5295 28.2344 -25.1499
3 -28.2587 30.8745 -25.156
3 -31.2758 31.1865 -28.2767
3 -25.1658 31.2196 -28.2979
3 -25.3814 25.1116 -22.0241
3 -31.0247 25.1706 -22.0275
1 -28.3872 28.4192 -15.7594
1 -28.1984 28.3513 -9.45324
1 -28.472 22.4628 -15.7187
4 -28.3522 33.9524 -9.4833
2 -31.4423 25.2338 -18.9062
2 -31.515 31.4364 -18.9121
2 -31.5082 25.3115 -12.5883
2 -31.5834 31.5034 -12.6214
3 -31.8434 28.3252 -18.8875
3 -28.3353 25.8284 -18.7407
3 -24.8518 28.4414 -6.52215
3 -28.4948 31.0543 -6.36525
3 -31.9815 28.3997 -12.6573
3 -28.4077 25.9274 -12.7417
3 -24.825 28.3996 -12.3859
3 -28.4397 31.0133 -12.5771
3 -31.3808 31.2534 -15.7709
3 -25.3734 31.2019 -15.7389
3 -25.6804 25.1413 -9.42675
3 -31.1758 25.3769 -9.46065
1 -28.533 28.5352 -3.15304
1 -28.236 28.3847 3.12818
1 -28.5908 22.65 -3.15178
4 -28.3855 34.0179 3.11672
2 -31.5567 25.3696 -6.33589
2 -31.6375 31.5614 -6.34188
2 -31.5731 25.388 -0.00469222
2 -31.6483 31.5948 -0.0215868
3 -32.0463 28.4584 -6.28335
3 -28.4554 25.9873 -6.13196
3 -24.9118 28.4557 6.02368
3 -28.4903 31.1244 6.20885
3 -32.008 28.4845 -0.0572209
3 -28.4659 25.9747 -0.190385
3 -24.8889 28.4629 0.214636
3 -28.5071 31.1004 0.0295118
3 -31.4894 31.3664 -3.18
3 -25.503 31.2658 -3.16753
3 -25.7234 25.161 3.11499
3 -31.2113 25.4273 3.11889
1 -28.5045 28.5209 9.35881
1 -28.1357 28.3184 15.6785
1 -28.57 22.6347 9.36606
4 -28.3119 33.906 15.7217
2 -31.5668 25.3747 6.24054
2 -31.6315 31.5936 6.26377
2 -31.5189 25.3484 12.5678
2 -31.6017 31.5287 12.5813
3 -31.9465 28.4771 6.29254
3 -28.4532 25.9234 6.43144
3 -24.7297 28.3525 18.6238
3 -28.3862 30.9563 18.8178
3 -32.0352 28.4313 12.5114
3 -28.4196 25.9816 12.3493
3 -24.8039 28.4125 12.7484
3 -28.4593 31.014 12.5968
3 -31.4575 31.3564 9.42128
3 -25.4753 31.2546 9.40017
3 -25.6332 25.1042 15.6612
3 -31.1025 25.3509 15.6903
1 -28.3571 28.3777 22.036
1 -28.1376 28.2001 28.19
1 -28.4103 22.4316 21.9733
4 -28.1807 33.9185 28.0262
2 -31.4412 25.2814 18.808
2 -31.5327 31.4565 18.8504
2 -31.3895 25.195 25.101
2 -31.4534 31.4374 25.1273
3 -31.9529 28.3588 18.9238
3 -28.3414 25.9178 18.9934
3 -25.0896 28.2471 31.09
3 -28.188 31.2189 31.145
3 -31.596 28.3063 25.1111
3 -28.2616 25.6909 24.9631
3 -24.7566 28.2966 25.3095
3 -28.2974 31.0348 25.128
3 -31.323 31.2452 21.997
3 -25.3137 31.1356 21.9579
3 -25.4001 25.0213 28.2173
3 -31.1005 25.1731 28.2239
4 -27.9967 28.17 33.9181
4 -28.1701 21.8988 33.9422
2 -31.368 25.1179 31.3838
2 -31.396 31.4424 31.455
3 -31.1324 28.2269 31.2395
3 -28.2319 25.0643 31.4192
3 -30.9002 30.985 34.6336
3 -25.0626 31.2222 34.5569
4 -22.136 34.0062 -34.1286
3 -19.1359 34.6808 -31.4363
3 -18.9779 31.3909 -34.6428
3 -25.2414 31.3917 -34.6858
4 -22.1703 34.0533 -28.3905
4 -21.6799 34.0771 -21.9861
1 -22.1801 28.2003 -28.4635
2 -25.2291 31.479 -31.461
2 -25.1483 31.3659 -25.1493
3 -25.1568 34.6672 -31.3953
3 -22.1301 31.2604 -31.3546
3 -18.6414 34.5072 -19.1047
3 -25.5702 34.5762 -25.182
3 -22.075 31.8196 -25.1722
3 -18.5407 34.414 -24.8984
3 -19.0456 30.8727 -21.989
3 -25.1167 31.2627 -22.0269
4 -22.462 34.2487 -15.7345
4 -21.8283 34.1174 -9.46156
1 -22.3828 28.5116 -15.6912
2 -25.272 31.4817 -18.8908
2 -25.3438 31.5384 -12.5897
3 -25.6914 34.6517 -18.7702
3 -22.1876 31.7907 -18.8108
3 -18.7713 34.5801 -6.54679
3 -25.7532 34.7094 -12.7974
3 -22.2496 31.8082 -12.6675
3 -18.7499 34.5582 -12.4092
3 -19.2478 30.9652 -9.43732
3 -25.2298 31.5373 -9.45779
4 -22.5945 34.3478 -3.16577
4 -21.853 34.1332 3.12448
1 -22.4905 28.6506 -3.15277
2 -25.3961 31.576 -6.32144
2 -25.4079 31.6013 -0.0161591
3 -25.8291 34.7482 -6.15917
3 -22.3047 31.8796 -6.21268
3 -18.7981 34.5865 6.04897
3 -25.8266 34.7749 -0.212925
3 -22.3158 31.8775 -0.120832
3 -18.7948 34.592 0.206461
3 -19.286 30.9753 3.11445
3 -25.2561 31.611 3.11781
4 -22.5465 34.3284 9.37847
4 -21.8091 34.0849 15.6916
1 -22.4652 28.6345 9.36796
2 -25.3913 31.6019 6.24925
2 -25.3623 31.5462 12.5516
3 -25.7812 34.7755 6.46098
3 -22.2984 31.8364 6.3498
3 -18.6943 34.5183 18.6421
3 -25.803 34.7183 12.4179
3 -22.2725 31.8643 12.4346
3 -18.7428 34.5589 12.7835
3 -19.2097 30.9343 15.6578
3 -25.1859 31.4868 15.689
4 -22.3119 34.206 22.0067
4 -21.848 33.9739 28.242
1 -22.3062 28.4718 21.9605
2 -25.2875 31.4869 18.8159
2 -25.2024 31.447 25.0793
3 -25.6957 34.6621 19.0046
3 -22.1958 31.7944 18.9155
3 -18.879 34.545 31.2183
3 -25.5062 34.6391 24.9172
3 -22.1134 31.6637 25.0285
3 -18.7574 34.5292 25.1962
3 -18.9872 31.0403 28.1874
3 -25.0521 31.4444 28.2072
4 -21.925 33.9049 34.0012
4 -22.0617 28.0254 33.8835
2 -25.0852 31.4067 31.3525
3 -24.9865 34.614 31.4072
3 -21.9792 31.1586 31.2325
4 -15.881 33.7125 -27.9092
4 -16.0474 33.8028 -15.7293
4 -16.1531 33.8822 -3.16409
4 -16.1284 33.8741 9.38764
4 -15.9938 33.7691 21.8242
4 -15.6812 33.9604 33.793
4 -33.8977 9.68446 -33.8918
4 -33.9096 15.8984 -34.1298
3 -31.0838 9.74496 -31.1905
3 -34.548 12.9035 -31.4347
3 -31.1462 6.73345 -34.616
4 -33.5391 9.65253 -27.8913
4 -33.3529 9.66524 -21.9404
4 -33.5966 3.54127 -28.2679
4 -33.9072 15.5301 -21.9395
3 -34.3354 6.48622 -31.3147
3 -30.4777 9.88158 -18.9227
3 -34.3208 12.4186 -19.117
3 -34.1359 6.88867 -25.061
3 -30.4074 9.75192 -25.1233
3 -34.2708 12.3214 -24.8895
3 -31.2022 12.8829 -28.2519
3 -30.8236 6.58319 -21.959
4 -33.6348 9.85741 -15.7147
4 -33.4551 9.83646 -9.44367
4 -33.7685 4.12281 -15.6652
4 -33.9223 15.644 -9.44655
3 -34.1299 7.09622 -18.7111
3 -30.5125 10.0003 -6.43467
3 -34.3694 12.5528 -6.56474
3 -34.1743 7.14101 -12.7495
3 -30.5239 9.94238 -12.4453
3 -34.3595 12.5349 -12.3754
3 -31.2519 13.0007 -15.7016
3 -31.0305 6.67974 -9.42669
4 -33.709 9.97136 -3.1662
4 -33.4736 9.87111 3.10028
4 -33.8446 4.27737 -3.16397
4 -33.9401 15.6731 3.10753
3 -34.1911 7.25016 -6.13893
3 -30.5402 10.0053 6.10139
3 -34.3829 12.5766 6.00366
3 -34.2044 7.25195 -0.197696
3 -30.534 10.0168 0.107381
3 -34.3824 12.5843 0.214191
3 -31.3094 13.0866 -3.16289
3 -31.0542 6.71015 3.09871
4 -33.712 9.95644 9.3594
4 -33.479 9.81883 15.6307
4 -33.8553 4.25448 9.34721
4 -33.9086 15.655 15.6528
3 -34.2118 7.23781 6.39802
3 -30.5695 9.8945 18.6633
3 -34.3627 12.528 18.5886
3 -34.2101 7.23102 12.3354
3 -30.5294 9.97263 12.6352
3 -34.3771 12.5586 12.7748
3 -31.3102 13.0703 9.37015
3 -31.0599 6.65832 15.6212
4 -33.6311 9.82716 21.7999
4 -33.5648 9.65875 27.9112
4 -33.8092 4.00195 21.8091
4 -33.9025 15.6285 28.2214
3 -34.2113 7.04934 18.9221
3 -30.9944 9.59489 31.0698
3 -34.44 12.6689 31.2262
3 -34.2185 7.07494 24.7737
3 -30.5179 9.8096 25.1352
3 -34.4076 12.4848 25.1953
3 -31.2286 12.9585 21.8958
3 -31.1112 6.48833 28.1346
4 -33.8091 9.49025 33.7858
4 -33.542 3.28045 33.9402
3 -34.3211 6.29266 31.3177
3 -31.2693 12.5827 34.5485
4 -28.1069 15.9132 -34.0806
4 -28.2126 22.1483 -34.0895
3 -25.1257 15.985 -31.3893
3 -28.3015 19.058 -31.4746
3 -25.2445 12.9056 -34.7108
3 -31.2465 12.7771 -34.6286
1 -28.139 16.0189 -28.4451
1 -27.8992 15.8893 -21.9598
1 -28.0061 9.81977 -28.4286
1 -28.1614 21.9418 -21.9541
2 -31.3471 12.8326 -31.4055
2 -31.4467 19.0218 -31.4592
2 -31.0889 12.8271 -25.0891
2 -31.2678 18.9684 -25.1355
3 -31.1701 15.9321 -31.3499
3 -28.1911 12.8769 -31.2924
3 -24.4096 16.112 -19.1226
3 -28.2067 18.5469 -19.0288
3 -31.7141 15.8889 -25.1844
3 -28.0248 13.6034 -25.3422
3 -24.2908 15.9949 -25.0608
3 -28.147 18.3183 -25.1002
3 -31.1555 18.9986 -28.2974
3 -25.2769 19.0015 -28.3252
3 -25.2611 12.8133 -21.9845
3 -30.7044 12.8939 -21.9761
1 -28.4522 16.2517 -15.6699
1 -27.8586 15.9292 -9.43116
1 -28.1912 10.3573 -15.6774
1 -28.2524 21.9582 -9.43304
2 -31.1721 12.9314 -18.8535
2 -31.3461 19.0856 -18.8661
2 -31.1988 12.9901 -12.5428
2 -31.3995 19.1609 -12.5691
3 -31.659 16.0052 -18.7266
3 -28.0525 13.5936 -18.5702
3 -24.4633 16.2028 -6.65601
3 -28.2832 18.6581 -6.58882
3 -31.645 16.0678 -12.7024
3 -28.0624 13.5932 -12.8209
3 -24.4706 16.1604 -12.2075
3 -28.2542 18.6422 -12.2947
3 -31.0669 19.2898 -15.7165
3 -25.4877 19.0317 -15.6843
3 -25.3386 12.798 -9.41503
3 -30.751 13.0924 -9.432
1 -28.5814 16.3579 -3.15554
1 -27.8524 15.9565 3.10987
1 -28.2579 10.475 -3.15726
1 -28.2823 21.983 3.11779
2 -31.2159 13.0491 -6.31774
2 -31.4227 19.2157 -6.30991
2 -31.2255 13.0662 -0.00714167
2 -31.4424 19.2326 -0.0166586
3 -31.7191 16.1259 -6.14877
3 -28.085 13.6921 -6.00508
3 -24.4835 16.2005 5.86858
3 -28.2947 18.6918 5.94662
3 -31.7162 16.1426 -0.183052
3 -28.0908 13.6941 -0.311972
3 -24.4832 16.2146 0.355521
3 -28.3005 18.6923 0.280486
3 -31.1134 19.4357 -3.16297
3 -25.5833 19.0463 -3.1494
3 -25.3615 12.8077 3.10648
3 -30.7588 13.14 3.10451
1 -28.5603 16.3368 9.36841
1 -27.8656 15.8911 15.6387
1 -28.2603 10.4481 9.36413
1 -28.207 21.921 15.6561
2 -31.2252 13.0547 6.21304
2 -31.4397 19.2195 6.24047
2 -31.2201 13.0246 12.519
2 -31.3902 19.1961 12.5281
3 -31.7052 16.1306 6.3969
3 -28.0905 13.6745 6.52436
3 -24.4569 16.1066 18.4572
3 -28.2114 18.5884 18.5216
3 -31.6931 16.1066 12.3684
3 -28.0875 13.6588 12.2184
3 -24.4601 16.1743 12.873
3 -28.2543 18.6302 12.8061
3 -31.0955 19.4159 9.38621
3 -25.5629 19.0264 9.37124
3 -25.3382 12.7626 15.6297
3 -30.7621 13.052 15.6338
1 -28.4047 16.1741 21.9006
1 -28.0075 15.7801 28.2539
1 -28.198 10.2726 21.8814
1 -28.1255 21.956 28.2452
2 -31.1969 12.9538 18.7366
2 -31.3496 19.126 18.7833
2 -31.22 12.869 25.0278
2 -31.34 19.0386 25.0471
3 -31.6104 16.0324 18.902
3 -28.0642 13.5333 19.0175
3 -25.0141 15.8611 31.0582
3 -28.2241 18.9222 31.1026
3 -31.6803 15.9549 24.956
3 -28.0933 13.533 24.859
3 -24.3922 16.0057 25.3488
3 -28.2167 18.4684 25.3265
3 -31.0039 19.2397 21.9263
3 -25.4555 18.9552 21.9162
3 -25.2655 12.6632 28.1882
3 -30.9411 12.825 28.1641
4 -27.9785 15.8726 33.8838
4 -27.9888 9.5562 33.9368
2 -31.2448 12.6865 31.3185
2 -31.3839 18.8953 31.3277
3 -31.0979 15.7971 31.224
3 -28.1136 12.7291 31.3955
3 -31.2261 18.9277 34.5397
3 -25.2709 18.8672 34.5794
4 -22.1491 22.0878 -34.0981
4 -22.1009 28.2103 -34.0889
3 -19.0453 22.1455 -31.4706
3 -22.1504 25.2067 -31.4133
3 -19.1765 19.0518 -34.7189
3 -25.194 19.1089 -34.7235
1 -22.1235 22.1959 -28.5323
1 -21.7511 21.971 -21.9851
1 -22.1327 16.043 -28.4883
1 -22.0846 28.0776 -21.9608
2 -25.2043 19.0657 -31.524
2 -25.2407 25.2336 -31.5334
2 -25.0707 19.0606 -25.1473
2 -25.1424 25.128 -25.1668
3 -25.2243 22.1491 -31.337
3 -22.1259 19.1022 -31.2813
3 -18.4087 22.104 -19.1637
3 -22.2197 24.5888 -19.0792
3 -25.9779 22.0999 -25.3014
3 -22.0381 19.8474 -25.3887
3 -18.2328 22.0514 -24.9964
3 -22.097 24.379 -25.129
3 -25.1634 25.2591 -28.3411
3 -19.1148 25.0802 -28.3274
3 -19.3446 18.7631 -21.9888
3 -24.9606 19.3678 -22.0047
1 -22.7114 22.4536 -15.6729
1 -21.671 21.9966 -9.4163
1 -22.3209 16.6468 -15.6763
1 -22.1392 28.088 -9.43647
2 -25.1325 19.1512 -18.8548
2 -25.2605 25.2554 -18.8743
2 -25.1666 19.2084 -12.5167
2 -25.3324 25.3141 -12.5369
3 -25.8725 22.2025 -18.6236
3 -22.0807 19.8221 -18.5087
3 -18.4693 22.1527 -6.67077
3 -22.3235 24.6747 -6.60687
3 -25.9042 22.2567 -12.8235
3 -22.093 19.8053 -12.8852
3 -18.4594 22.1217 -12.1769
3 -22.2799 24.6618 -12.2592
3 -25.2114 25.5605 -15.7057
3 -19.5489 24.9861 -15.6857
3 -19.4389 18.7124 -9.4119
3 -24.9271 19.6452 -9.41193
1 -22.8496 22.5519 -3.14745
1 -21.6795 22.0133 3.11477
1 -22.3747 16.7353 -3.14981
1 -22.1656 28.0947 3.12332
2 -25.1984 19.2469 -6.3016
2 -25.3736 25.3572 -6.31222
2 -25.2091 19.2597 0.00433707
2 -25.3815 25.3728 0.00556293
3 -25.9705 22.2985 -5.99441
3 -22.1229 19.8762 -5.90486
3 -18.478 22.1516 5.85579
3 -22.3166 24.7059 5.92112
3 -25.9651 22.312 -0.315807
3 -22.1301 19.8753 -0.393744
3 -18.4833 22.1615 0.372075
3 -22.3327 24.6995 0.311722
3 -25.2798 25.7077 -3.15384
3 -19.6579 24.9985 -3.1491
3 -19.4662 18.7223 3.11017
3 -24.9441 19.6894 3.11089
1 -22.8179 22.5305 9.3699
1 -21.6379 21.964 15.6456
1 -22.3627 16.7051 9.36814
1 -22.0904 28.043 15.6502
2 -25.1999 19.2444 6.21473
2 -25.3659 25.3593 6.22123
2 -25.174 19.2247 12.5228
2 -25.3416 25.3309 12.5396
3 -25.9331 22.2973 6.54344
3 -22.1209 19.8543 6.61445
3 -18.4121 22.0886 18.4274
3 -22.2201 24.5974 18.5195
3 -25.9508 22.276 12.2188
3 -22.1025 19.8556 12.1348
3 -18.4426 22.135 12.8957
3 -22.29 24.646 12.8419
3 -25.2456 25.6867 9.38176
3 -19.6309 24.9806 9.37609
3 -19.4014 18.6888 15.6359
3 -24.8908 19.603 15.6393
1 -22.6001 22.3902 21.9438
1 -21.9273 21.8961 28.3318
1 -22.2918 16.5245 21.9113
1 -21.9685 28.1154 28.2124
2 -25.1302 19.1648 18.7455
2 -25.2716 25.2702 18.7733
2 -25.1287 19.0447 25.0631
2 -25.1638 25.1913 25.0903
3 -25.8659 22.2145 19.0663
3 -22.0651 19.766 19.1136
3 -18.8799 22.0209 31.0525
3 -22.0307 25.0939 31.0216
3 -25.8004 22.1228 24.8865
3 -22.0622 19.7697 24.825
3 -18.2972 22.0743 25.395
3 -22.1189 24.5464 25.3869
3 -25.1085 25.5181 21.9469
3 -19.4553 24.9529 21.93
3 -19.1974 18.7748 28.2032
3 -24.9831 19.2075 28.2036
4 -21.9183 22.0887 33.9095
4 -22.0422 15.7703 33.9517
2 -25.1174 18.9447 31.3802
2 -25.1218 25.1436 31.3793
3 -25.097 22.0462 31.363
3 -22.0223 18.9573 31.3912
3 -25.0077 25.2404 34.5784
3 -19.0971 25.0308 34.5691
4 -15.9834 28.1925 -34.0446
4 -15.9101 34.0756 -33.9134
3 -12.8984 28.2218 -31.4219
3 -15.9401 31.2676 -31.2066
3 -12.9489 25.1481 -34.6958
3 -19.0569 25.354 -34.7299
1 -15.9756 28.1869 -28.457
1 -15.7835 28.0357 -21.9104
1 -16.0725 22.1321 -28.4898
4 -15.8597 33.5527 -21.941
2 -19.0655 25.2332 -31.53
2 -19.0328 31.4829 -31.42
2 -19.0142 25.1019 -25.1434
2 -19.0045 31.2203 -25.1062
3 -19.0504 28.3274 -31.3257
3 -15.9906 25.192 -31.3137
3 -12.4082 28.0261 -19.0191
3 -16.0478 30.7029 -18.9066
3 -19.8027 28.1597 -25.331
3 -15.9732 25.8964 -25.2992
3 -12.1746 28.0187 -25.0687
3 -15.9226 30.5824 -25.1401
3 -19.0752 31.3182 -28.2648
3 -12.8218 31.0712 -28.2453
3 -13.291 24.8002 -21.9754
3 -18.9819 25.4071 -21.9977
1 -16.5028 28.3912 -15.6793
1 -15.7829 28.0819 -9.4248
1 -16.3434 22.6224 -15.6705
4 -16.0318 33.6836 -9.44762
2 -19.1453 25.1445 -18.8454
2 -19.1048 31.3519 -18.8696
2 -19.1893 25.1692 -12.527
2 -19.1629 31.3923 -12.553
3 -19.732 28.2323 -18.6037
3 -16.0868 25.7562 -18.5355
3 -12.5108 28.0792 -6.58722
3 -16.1648 30.7482 -6.41752
3 -19.7484 28.2627 -12.8112
3 -16.1274 25.745 -12.8682
3 -12.5024 28.0585 -12.2644
3 -16.1098 30.7464 -12.4627
3 -19.2123 31.4261 -15.7166
3 -13.1949 30.8846 -15.6854
3 -13.5407 24.7249 -9.40707
3 -18.9718 25.5726 -9.4124
1 -16.6409 28.4772 -3.15306
1 -15.7916 28.1008 3.11142
1 -16.4059 22.7064 -3.14975
4 -16.0602 33.7015 3.11646
2 -19.2314 25.1994 -6.29378
2 -19.2182 31.42 -6.3212
2 -19.2382 25.2086 -0.00296969
2 -19.2295 31.4301 -0.000405108
3 -19.8364 28.2944 -6.02104
3 -16.1662 25.8061 -5.93889
3 -12.5227 28.0893 5.94753
3 -16.1589 30.7662 6.12683
3 -19.837 28.3021 -0.29128
3 -16.1737 25.8061 -0.36812
3 -12.5303 28.0895 0.276946
3 -16.1769 30.7643 0.101369
3 -19.3033 31.5119 -3.16153
3 -13.3278 30.9207 -3.1573
3 -13.5657 24.743 3.10994
3 -18.9786 25.6049 3.11255
1 -16.6032 28.4609 9.37264
1 -15.7404 28.0609 15.6465
1 -16.3817 22.6845 9.37036
4 -15.9933 33.6624 15.6556
2 -19.2204 25.1978 6.22679
2 -19.2099 31.4211 6.22622
2 -19.1994 25.1811 12.5188
2 -19.1868 31.3983 12.5423
3 -19.8006 28.2912 6.52162
3 -16.1572 25.7884 6.591
3 -12.4517 28.0515 18.495
3 -16.0536 30.7351 18.6921
3 -19.8091 28.2735 12.2429
3 -16.1338 25.7958 12.1733
3 -12.4706 28.0744 12.8056
3 -16.1311 30.7287 12.6421
3 -19.2717 31.4959 9.38761
3 -13.2988 30.9169 9.37626
3 -13.4693 24.7256 15.6337
3 -18.9246 25.5364 15.6441
1 -16.4002 28.3517 21.9078
1 -15.6977 28.0482 28.2241
1 -16.2532 22.5319 21.9164
4 -15.8743 33.7219 27.9138
2 -19.1318 25.1352 18.7623
2 -19.1178 31.3474 18.7634
2 -19.038 25.1055 25.0708
2 -19.0151 31.3335 25.0568
3 -19.7074 28.2239 19.0375
3 -16.0674 25.7118 19.095
3 -12.7023 28.1222 31.1062
3 -15.7699 31.1424 31.0804
3 -19.6215 28.2027 24.8701
3 -15.966 25.7766 24.8213
3 -12.2612 28.0872 25.3185
3 -15.9538 30.689 25.1449
3 -19.126 31.362 21.9253
3 -13.1071 30.8617 21.8939
3 -13.0394 24.8829 28.1972
3 -18.7838 25.4125 28.1988
4 -15.694 28.1302 33.9427
4 -15.9005 21.8805 33.9326
2 -18.9378 25.1106 31.368
2 -18.8676 31.3488 31.3432
3 -18.8852 28.219 31.4436
3 -15.8455 25.0655 31.3828
3 -18.7537 31.411 34.5679
3 -12.7093 31.174 34.5095
4 -9.69025 33.7945 -34.0804
3 -6.67846 34.3825 -31.3778
3 -6.61212 31.0935 -34.5995
3 -12.9301 31.3472 -34.6347
4 -9.73169 33.8372 -28.3189
4 -9.4649 33.7258 -21.8867
1 -9.86837 28.0255 -28.4054
2 -12.8422 31.3689 -31.4045
2 -12.8176 31.1384 -25.0861
3 -12.6939 34.5577 -31.3627
3 -9.75712 31.0522 -31.3069
3 -6.28577 34.1354 -19.099
3 -13.1523 34.3504 -25.0598
3 -9.72873 31.5431 -25.1563
3 -6.16605 34.1139 -24.9116
3 -6.77071 30.5438 -21.9503
3 -12.762 31.0333 -21.966
4 -10.2817 33.9813 -15.67
4 -9.51174 33.715 -9.42715
1 -10.1323 28.2991 -15.6517
2 -12.9561 31.1619 -18.8234
2 -13.0179 31.2076 -12.5464
3 -13.2807 34.3476 -18.7112
3 -9.86969 31.4613 -18.6691
3 -6.39763 34.1588 -6.55515
3 -13.3384 34.3941 -12.7734
3 -9.92354 31.4441 -12.7025
3 -6.381 34.1562 -12.3512
3 -6.95633 30.5404 -9.4188
3 -12.8637 31.2771 -9.42344
4 -10.4345 34.0613 -3.15869
4 -9.53542 33.7279 3.10467
1 -10.2301 28.4033 -3.15372
2 -13.072 31.2217 -6.2952
2 -13.084 31.233 -0.0182509
3 -13.4323 34.4106 -6.12082
3 -9.97925 31.5125 -6.11527
3 -6.41122 34.1728 5.99803
3 -13.4383 34.4211 -0.207577
3 -9.99209 31.5125 -0.204448
3 -6.42023 34.1673 0.221481
3 -6.99895 30.5443 3.10541
3 -12.8864 31.2994 3.10947
4 -10.4031 34.0567 9.36907
4 -9.4934 33.7167 15.6389
1 -10.2018 28.3949 9.36561
2 -13.0675 31.2342 6.23536
2 -13.0391 31.2131 12.5089
3 -13.4171 34.422 6.43731
3 -9.97673 31.5076 6.41676
3 -6.35138 34.1718 18.5775
3 -13.404 34.4016 12.3513
3 -9.94645 31.5144 12.3348
3 -6.37338 34.1704 12.7741
3 -6.89911 30.5596 15.6263
3 -12.8264 31.2578 15.6381
4 -10.1474 33.9881 21.8302
4 -9.38805 33.7425 28.1861
1 -10.0256 28.2766 21.8762
2 -12.9573 31.1963 18.7562
2 -12.8613 31.2018 25.0088
3 -13.2258 34.3879 18.9544
3 -9.85999 31.4128 18.8993
3 -6.40674 34.2588 31.1826
3 -13.2577 34.3901 24.7888
3 -9.76959 31.5494 24.9041
3 -6.25242 34.2209 25.1991
3 -6.62629 30.7451 28.1465
3 -12.6633 31.3072 28.1489
4 -9.45358 33.7073 33.9676
4 -9.65807 27.8397 33.8756
2 -12.6621 31.2834 31.2946
3 -12.4688 34.4921 31.3525
3 -9.57258 30.9584 31.2095
4 -3.48267 33.369 -27.8948
4 -3.71899 33.4579 -15.6893
4 -3.8241 33.5161 -3.15765
4 -3.79828 33.5185 9.35402
4 -3.63169 33.4453 21.793
4 -3.26432 33.611 33.7675
4 -33.4806 -2.66658 -33.8409
4 -33.5747 3.4906 -34.0363
3 -30.6364 -2.59439 -31.1659
3 -34.1328 0.480723 -31.3286
3 -30.7761 -5.64564 -34.5638
4 -33.1263 -2.68258 -27.8955
4 -32.9299 -2.61708 -21.9347
4 -33.2069 -8.70741 -28.1573
4 -33.4752 3.30453 -21.8986
3 -33.9185 -5.79428 -31.1932
3 -30.0476 -2.40676 -18.9081
3 -33.8936 0.116742 -19.1114
3 -33.712 -5.4323 -25.0489
3 -29.9805 -2.56814 -25.0818
3 -33.8584 0.0166378 -24.9183
3 -30.7719 0.524919 -28.2086
3 -30.4069 -5.70425 -21.9189
4 -33.2321 -2.45317 -15.7155
4 -33.013 -2.46265 -9.43722
4 -33.3385 -8.17441 -15.6478
4 -33.4897 3.36416 -9.43796
3 -33.7064 -5.24483 -18.7223
3 -30.0777 -2.29605 -6.43284
3 -33.9379 0.235503 -6.56583
3 -33.7476 -5.1643 -12.7325
3 -30.0774 -2.35634 -12.4207
3 -33.9268 0.215398 -12.3662
3 -30.8326 0.665596 -15.6826
3 -30.5897 -5.62633 -9.40828
4 -33.3038 -2.33301 -3.16981
4 -33.0364 -2.42922 3.09175
4 -33.4237 -7.99968 -3.15544
4 -33.5143 3.39943 3.09172
3 -33.766 -5.07425 -6.14754
3 -30.1127 -2.29281 6.08707
3 -33.9644 0.258226 5.98625
3 -33.7784 -5.05844 -0.188918
3 -30.0937 -2.28123 0.114471
3 -33.9529 0.264754 0.208138
3 -30.8821 0.755592 -3.16339
3 -30.6177 -5.59868 3.09808
4 -33.3173 -2.35524 9.34188
4 -33.0579 -2.50182 15.6117
4 -33.4403 -8.02562 9.3321
4 -33.5221 3.34383 15.6206
3 -33.7899 -5.08618 6.37273
3 -30.1637 -2.42348 18.6373
3 -33.9765 0.18737 18.5611
3 -33.7899 -5.0927 12.3287
3 -30.1005 -2.32906 12.6294
3 -33.9675 0.211016 12.7589
3 -30.9013 0.738044 9.3542
3 -30.6305 -5.66104 15.6025
4 -33.2592 -2.52246 21.7846
4 -33.1627 -2.70398 27.9057
4 -33.4021 -8.31788 21.7866
4 -33.5524 3.22481 28.1613
3 -33.8019 -5.29466 18.8865
3 -30.586 -2.77027 31.049
3 -34.066 0.233318 31.15
3 -33.8115 -5.29837 24.772
3 -30.1218 -2.5149 25.1114
3 -34.0284 0.09244 25.1904
3 -30.8739 0.610379 21.8652
3 -30.6834 -5.85471 28.1009
4 -33.4254 -2.8955 33.7426
4 -33.1742 -9.05946 33.8725
3 -33.9151 -6.05608 31.2367
3 -30.9267 0.209085 34.5166
4 -27.7378 3.58575 -34.0106
4 -28.0156 9.81366 -34.0258
3 -24.7469 3.66535 -31.3119
3 -27.9952 6.71897 -31.4207
3 -24.8807 0.608905 -34.6702
3 -30.8529 0.432817 -34.5771
1 -27.803 3.71031 -28.3745
1 -27.4674 3.57448 -21.9481
1 -27.5731 -2.48348 -28.3778
1 -27.8259 9.60218 -21.9269
2 -30.9253 0.482805 -31.3577
2 -31.1441 6.6515 -31.3871
2 -30.6699 0.492459 -25.05
2 -30.9179 6.64401 -25.0747
3 -30.8157 3.5723 -31.2797
3 -27.7668 0.554698 -31.2332
3 -23.9853 3.84739 -19.1487
3 -27.8009 6.23957 -19.0331
3 -31.2474 3.54888 -25.1473
3 -27.5949 1.23395 -25.3274
3 -23.9434 3.70445 -24.9779
3 -27.7894 6.04777 -25.0395
3 -30.8368 6.64387 -28.23
3 -24.9749 6.69401 -28.2742
3 -24.8399 0.492855 -21.9611
3 -30.2847 0.60458 -21.9461
1 -28.0831 3.98193 -15.6549
1 -27.437 3.64174 -9.42474
1 -27.755 -1.92597 -15.6618
1 -27.8542 9.62503 -9.43015
2 -30.7439 0.643327 -18.8286
2 -30.9386 6.79404 -18.8193
2 -30.7663 0.68878 -12.53
2 -30.9835 6.85477 -12.5481
3 -31.2381 3.70787 -18.6533
3 -27.6187 1.30215 -18.5372
3 -24.0286 3.93263 -6.66722
3 -27.8536 6.35711 -6.58027
3 -31.2117 3.76006 -12.7163
3 -27.6276 1.30087 -12.8265
3 -24.0342 3.89467 -12.1928
3 -27.8312 6.34949 -12.2776
3 -30.6721 7.04397 -15.6852
3 -25.0834 6.7005 -15.6747
3 -24.8982 0.519631 -9.41237
3 -30.3155 0.800113 -9.42407
1 -28.1803 4.08251 -3.15875
1 -27.445 3.67279 3.10083
1 -27.8183 -1.8132 -3.15425
1 -27.8757 9.64194 3.1034
2 -30.7864 0.752908 -6.31315
2 -30.9999 6.91411 -6.29994
2 -30.7976 0.767298 -0.0122914
2 -31.0134 6.92943 -0.0270351
3 -31.2907 3.82138 -6.1164
3 -27.6529 1.39734 -5.99602
3 -24.0582 3.93134 5.86251
3 -27.8732 6.37713 5.95224
3 -31.2877 3.83662 -0.216412
3 -27.6613 1.40168 -0.322955
3 -24.0463 3.94326 0.355331
3 -27.8664 6.38357 0.255638
3 -30.7145 7.17317 -3.16375
3 -25.1351 6.72391 -3.15559
3 -24.9288 0.535699 3.10526
3 -30.3345 0.847265 3.09718
1 -28.1895 4.05968 9.35654
1 -27.4757 3.5993 15.6286
1 -27.835 -1.83267 9.35392
1 -27.8743 9.59742 15.6379
2 -30.8088 0.756753 6.20173
2 -31.0211 6.91841 6.22268
2 -30.8148 0.720828 12.5002
2 -31.0195 6.88622 12.4931
3 -31.2913 3.82562 6.40833
3 -27.6722 1.38154 6.52337
3 -24.098 3.82463 18.4319
3 -27.868 6.30939 18.4873
3 -31.3154 3.79322 12.3156
3 -27.6826 1.37073 12.1997
3 -24.0609 3.89763 12.879
3 -27.877 6.32614 12.7887
3 -30.7256 7.14971 9.36222
3 -25.1513 6.70622 9.36446
3 -24.9408 0.47123 15.6246
3 -30.3594 0.749418 15.6144
1 -28.1008 3.88813 21.8613
1 -27.6467 3.44976 28.2236
1 -27.8054 -2.00522 21.8637
1 -27.8911 9.55114 28.2207
2 -30.8119 0.631131 18.7106
2 -31.0169 6.80146 18.7391
2 -30.8474 0.544235 24.9971
2 -31.026 6.71624 24.9925
3 -31.2228 3.7046 18.8889
3 -27.6771 1.21274 19.017
3 -24.668 3.51309 31.0388
3 -27.9532 6.54051 31.1106
3 -31.365 3.61954 24.8775
3 -27.7251 1.22185 24.8025
3 -24.0579 3.72823 25.3408
3 -27.9126 6.11192 25.2957
3 -30.6954 6.9642 21.8771
3 -25.1376 6.63497 21.8918
3 -24.922 0.338022 28.165
3 -30.5424 0.472514 28.132
4 -27.6522 3.50457 33.8657
4 -27.6023 -2.80158 33.9233
2 -30.8673 0.309321 31.2836
2 -31.1127 6.49143 31.282
3 -30.7781 3.40719 31.2007
3 -27.7366 0.373048 31.3881
3 -31.0186 6.53725 34.4994
3 -24.9816 6.51999 34.5662
4 -21.8537 9.76389 -34.0496
4 -22.0137 16.0048 -34.0754
3 -18.7401 9.84051 -31.3788
3 -22.0073 12.8771 -31.4698
3 -18.9518 6.79855 -34.6666
3 -24.8756 6.74048 -34.6647
1 -22.0223 9.95545 -28.4446
1 -21.2981 9.58408 -21.9762
1 -21.7953 3.82364 -28.3999
1 -21.8101 15.506 -21.9993
2 -24.881 6.74621 -31.4717
2 -25.0945 12.9021 -31.5111
2 -24.7252 6.78382 -25.1007
2 -24.9543 12.8924 -25.127
3 -25.0216 9.82512 -31.2968
3 -21.795 6.84751 -31.1742
3 -18.0393 9.84339 -19.2195
3 -21.9182 12.2631 -19.1977
3 -25.6535 9.8214 -25.312
3 -21.6856 7.49175 -25.4112
3 -18.0447 9.79677 -24.7934
3 -21.9019 12.128 -24.9137
3 -24.9189 12.9772 -28.3071
3 -19.1193 12.7718 -28.2687
3 -18.9722 6.3754 -21.9616
3 -24.5667 7.14844 -21.9752
1 -22.4333 10.2118 -15.6831
1 -21.2106 9.63616 -9.41897
1 -21.8979 4.38301 -15.6774
1 -21.7818 15.4657 -9.42296
2 -24.7392 6.90127 -18.8304
2 -24.9587 13.0265 -18.8362
2 -24.7486 6.9503 -12.5207
2 -24.9614 13.0632 -12.5347
3 -25.5541 9.9486 -18.5333
3 -21.6766 7.54503 -18.4597
3 -18.0303 9.87751 -6.69051
3 -21.9364 12.321 -6.67158
3 -25.5287 9.99022 -12.88
3 -21.6663 7.54387 -12.9201
3 -18.0256 9.85923 -12.1713
3 -21.9128 12.3101 -12.1815
3 -24.7598 13.439 -15.6862
3 -19.2166 12.6064 -15.6943
3 -18.9578 6.39879 -9.42285
3 -24.5017 7.38668 -9.4148
1 -22.4865 10.2649 -3.15529
1 -21.2275 9.64812 3.10722
1 -21.9307 4.44653 -3.15445
1 -21.7902 15.4701 3.1093
2 -24.7765 6.9861 -6.30154
2 -24.986 13.1064 -6.29236
2 -24.7851 6.99695 -0.00755955
2 -24.9931 13.1161 -0.0139472
3 -25.5836 10.0294 -5.94539
3 -21.6874 7.58829 -5.90654
3 -18.0494 9.87544 5.84578
3 -21.9431 12.3297 5.8606
3 -25.5824 10.04 -0.37199
3 -21.6953 7.59013 -0.403109
3 -18.0425 9.88295 0.376766
3 -21.9436 12.3345 0.359422
3 -24.7555 13.5272 -3.15371
3 -19.2333 12.5972 -3.15521
3 -18.9793 6.40739 3.10947
3 -24.5261 7.41349 3.10582
1 -22.4832 10.2471 9.36977
1 -21.2575 9.60986 15.6337
1 -21.9486 4.42214 9.36863
1 -21.7788 15.4576 15.6434
2 -24.7917 6.98545 6.21558
2 -24.9931 13.1025 6.22616
2 -24.8006 6.95266 12.5096
2 -24.99 13.0793 12.5049
3 -25.5798 10.0281 6.58527
3 -21.7036 7.5752 6.61548
3 -18.073 9.83109 18.4057
3 -21.9186 12.2792 18.4172
3 -25.5931 10.0016 12.1661
3 -21.7157 7.56309 12.1252
3 -18.0609 9.86142 12.903
3 -21.9419 12.3072 12.8869
3 -24.7598 13.5065 9.36912
3 -19.2395 12.5925 9.37163
3 -18.9918 6.37993 15.6383
3 -24.5382 7.32761 15.6285
1 -22.3903 10.1314 21.9065
1 -21.6513 9.57512 28.3357
1 -21.9477 4.27973 21.9041
1 -21.8291 15.7092 28.3392
2 -24.7877 6.88685 18.7337
2 -24.9652 13.0088 18.7494
2 -24.8441 6.78065 25.0369
2 -24.9925 12.9286 25.0516
3 -25.5326 9.93459 19.087
3 -21.7162 7.47924 19.1115
3 -18.6244 9.67561 31.0821
3 -21.9167 12.6899 31.0899
3 -25.6448 9.84309 24.8118
3 -21.7819 7.49487 24.7754
3 -18.0636 9.82847 25.3742
3 -21.9602 12.1554 25.3835
3 -24.8098 13.3363 21.9115
3 -19.2227 12.6333 21.9157
3 -18.9455 6.49098 28.1869
3 -24.7226 6.89891 28.183
4 -21.76 9.72302 33.937
4 -21.7772 3.48401 33.9714
2 -24.8447 6.59216 31.3565