421
 Atoms. Timestep: 10001870
4 -11.0706 10.9122 -5.39086
4 -11.0762 11.1823 6.01832
4 -12.1179 5.85564 -10.7937
3 -9.01407 5.99077 -8.50793
3 -11.8513 8.93401 -8.28251
3 -9.30708 3.04151 -11.6102
4 -11.5673 5.18231 -5.89744
4 -11.4086 5.60822 0.406816
4 -11.319 -0.0926856 -5.50942
4 -10.7558 11.3213 0.305444
3 -12.128 2.50973 -8.49863
3 -9.03671 5.88479 3.13423
3 -11.6787 8.75517 3.17627
3 -11.8993 2.80542 -2.97667
3 -8.99985 5.87718 -3.1541
3 -11.9526 8.96341 -2.10066
3 -8.46674 8.73952 -5.65743
3 -8.67662 2.86676 -0.0273897
4 -11.3154 5.90247 5.8074
4 -11.2281 5.92631 10.8903
4 -11.2955 0.00198282 5.42012
3 -11.9315 2.77889 3.17437
3 -11.7456 3.30823 8.25983
3 -8.56067 5.98043 8.58698
3 -11.9956 8.42299 8.52531
3 -8.39581 8.72412 5.93762
3 -8.83389 2.64753 11.8414
4 -4.98719 12.6735 -8.1149
3 -2.03593 14.4208 -6.34688
3 -2.58763 11.4932 -10.4944
3 -9.71063 8.25282 -12.0337
4 -5.72748 11.6248 -5.10199
4 -5.88328 10.8943 -0.213594
1 -6.30021 5.9296 -5.45829
2 -8.79388 9.05887 -8.82801
2 -8.86179 8.92691 -2.74246
3 -8.50627 12.1848 -7.59304
3 -5.87788 8.51556 -9.15774
3 -3.00573 11.8486 2.44795
3 -8.3981 12.0098 -2.52872
3 -5.86789 8.58181 -2.9048
3 -2.96821 11.7393 -2.58082
3 -3.0372 8.23919 -0.231848
3 -8.48085 8.47961 -0.0315873
4 -5.81091 11.4312 5.75433
4 -6.32697 10.7627 11.6565
1 -5.658 6.14778 5.80703
2 -8.49572 8.64913 2.93442
2 -8.81272 8.7786 8.83718
3 -8.38658 11.5159 3.04018
3 -5.61715 8.21629 2.8344
3 -8.67417 11.5756 8.53364
3 -5.81524 8.71332 8.83982
3 -3.16226 11.7697 9.42094
3 -2.66777 8.76264 11.9853
3 -8.75342 8.27238 11.7118
4 0.0846494 11.8797 -4.46629
4 0.0771035 11.626 5.66601
4 -11.2202 -6.25091 -11.2235
4 -11.829 -0.0397011 -11.2359
3 -8.8593 -5.8047 -8.58949
3 -11.7921 -2.96761 -8.59963
3 -8.49845 -8.60507 -11.9247
4 -11.2936 -5.51714 -5.56861
4 -10.7213 -5.90547 0.234927
4 -11.3609 -11.1341 -5.78309
4 -11.0225 0.167271 -0.13092
3 -12.0619 -8.34957 -8.24749
3 -8.53826 -5.85245 2.99138
3 -11.8523 -2.75473 2.71448
3 -11.7738 -9.28934 -2.3275
3 -8.61811 -5.87342 -2.80496
3 -11.6919 -2.83758 -2.68416
3 -8.47563 -2.90801 -5.79827
3 -8.44357 -8.72029 0.206952
4 -10.7957 -5.87885 5.96817
4 -10.9482 -5.82694 11.3991
4 -10.7661 -11.2725 5.66643
4 -11.6304 0.231298 10.3258
3 -11.5118 -8.69751 3.00143
3 -11.6918 -8.51254 8.35473
3 -8.52479 -5.57801 8.94028
3 -11.8892 -2.9928 8.30145
3 -8.37504 -2.92539 5.88104
3 -8.28561 -8.59662 11.7265
4 -6.58057 0.183071 -11.2379
4 -6.82618 5.61599 -11.0642
3 -3.40466 0.17196 -9.19309
3 -6.00855 3.20253 -8.62806
3 -2.39563 -3.06801 -11.9157
3 -8.95607 -2.36576 -12.0573
1 -5.87269 0.236011 -6.03934
1 -5.86945 0.0371529 0.13603
1 -5.95108 -5.67 -5.69699
1 -5.70956 5.61808 -0.167959
2 -8.97736 -2.97479 -8.91036
2 -9.09882 2.94228 -8.72259
2 -8.70545 -2.95879 -2.77222
2 -8.65818 2.99836 -2.91538
3 -9.02007 0.0121287 -8.48225
3 -6.12292 -2.94822 -8.90759
3 -2.98735 -0.00667121 2.82861
3 -5.85102 2.9041 2.67702
3 -8.67078 0.0166162 -3.04839
3 -5.78479 -3.17389 -2.92712
3 -3.22194 -0.10158 -3.17329
3 -5.76386 2.98244 -2.94551
3 -8.66852 2.60015 -5.76059
3 -2.83591 2.70704 -6.00624
3 -2.78106 -2.76574 -0.128204
3 -8.28574 -2.7404 0.0715266
1 -6.03464 0.0251144 5.77999
4 -5.81833 0.363127 11.1546
1 -5.7313 -5.54434 5.8991
4 -5.99603 5.71017 11.5126
2 -8.83317 -2.80844 3.16919
2 -9.02996 2.92189 2.82009
2 -8.6596 -2.69936 8.87871
2 -9.00334 3.11743 8.81647
3 -8.62981 0.13304 2.93275
3 -5.81525 -2.85031 2.91771
3 -8.81737 0.16218 8.41595
3 -5.74185 -2.65356 8.98715
3 -2.69633 0.16885 9.02902
3 -5.97803 3.11175 8.74245
3 -8.4676 3.02368 5.67847
3 -3.49024 2.75373 5.82137
3 -2.59875 -3.21838 12.102
3 -9.50893 -2.47317 11.7739
4 0.475983 5.52668 -11.4774
4 0.14365 11.8888 -7.75051
3 2.77995 5.49095 -8.05256
3 0.10808 8.45248 -9.31075
3 3.02753 2.84049 -11.8995
3 -3.167 3.33194 -12.0036
1 -0.0104681 5.47021 -5.72165
1 0.145168 5.83924 0.1678
1 -0.0503237 -0.0516664 -5.97115
4 0.10629 11.4552 -0.254518
2 -3.03545 2.99249 -8.97633
2 -2.81839 8.62712 -9.30764
2 -2.74898 2.88184 -3.22377
2 -2.94535 8.76399 -3.16094
3 -3.00895 5.8347 -8.27419
3 -0.129002 2.92381 -8.91773
3 2.82527 6.13653 3.05362
3 0.0188351 9.02915 2.72538
3 -3.02798 5.77623 -3.51822
3 0.0883154 2.77145 -3.01292
3 2.98633 5.80279 -3.61372
3 0.0105004 8.38775 -2.80407
3 -2.79566 9.82921 -6.27438
3 2.47638 9.06631 -6.01231
3 2.92734 3.50218 -0.0630464
3 -2.91373 2.86944 -0.138396
1 -0.0990777 6.4055 5.78181
4 -0.199445 5.74062 11.0353
1 -0.530255 0.305024 5.64237
4 0.132684 11.1072 11.5402
2 -2.85118 2.91941 3.02456
2 -2.86038 8.82772 2.59183
2 -2.99849 3.08712 8.69303
2 -2.86651 8.97804 8.77853
3 -2.32739 5.81508 2.98539
3 0.0633054 2.72848 2.78535
3 -2.88496 5.97554 8.52623
3 -0.168552 3.07921 8.11753
3 2.37974 6.0551 8.51912
3 0.0716661 8.96716 8.65534
3 -3.04259 8.86697 5.73512
3 2.91174 8.95515 5.67089
3 2.298 3.27488 11.7221
3 -2.90239 3.22276 11.7974
4 5.83007 10.3527 -11.7111
3 8.11325 11.4995 -8.51562
3 8.50457 7.64852 -12.094
3 3.27047 7.84258 -11.9648
4 5.68613 10.8077 -5.88735
4 6.06777 10.9091 -0.239025
1 5.95935 5.55061 -5.69695
2 2.84956 8.38583 -8.90296
2 3.09183 8.76953 -3.18232
3 3.43501 11.4391 -8.92331
3 5.72712 8.15408 -8.40881
3 8.28934 11.8196 2.5577
3 3.18536 11.6488 -2.90002
3 5.92481 8.30735 -3.0922
3 8.57134 11.6617 -3.46994
3 8.71873 8.50102 -0.179826
3 3.00707 8.42017 -0.315131
4 5.62184 11.3315 5.22141
4 5.4963 11.4053 10.7533
1 5.88057 5.81942 5.72766
2 2.97384 8.86441 2.80353
2 2.92542 8.98752 8.6565
3 3.0379 11.8623 2.449
3 6.1024 8.39911 2.58805
3 2.51983 12.1186 8.60759
3 5.74995 8.70983 8.26488
3 7.96266 12.4101 7.91705
3 7.95792 8.96748 11.5847
3 3.02316 9.02709 11.5498
4 11.167 11.4362 -6.29126
4 10.5586 11.6799 5.64209
4 -10.5486 -11.7597 0.260952
4 -5.73364 -11.312 -10.8638
4 -5.62516 -5.79739 -11.3075
3 -2.92816 -11.5581 -8.67567
3 -6.01315 -8.44155 -8.53626
4 -6.02702 -10.884 -5.66292
4 -5.54204 -11.285 -0.120371
1 -5.74714 -5.82982 -0.147762
2 -9.05233 -8.69213 -8.71522
2 -8.76983 -8.66273 -2.82285
3 -8.65094 -11.6079 -8.21441
3 -2.84367 -11.5376 3.02724
3 -5.62475 -8.45869 3.17044
3 -8.45982 -11.7135 -2.86
3 -3.25194 -11.5798 -3.26207
3 -5.81055 -8.57436 -2.63408
3 -8.9397 -8.34792 -5.72399
3 -2.82321 -8.35941 -5.81073
4 -5.44624 -11.2828 5.83615
4 -5.54 -11.2088 11.3771
4 -5.43932 -5.67069 11.0488
2 -8.54662 -8.88128 3.03934
2 -8.91332 -8.74842 8.82655
3 -8.05344 -11.9894 2.85088
3 -8.23191 -11.8958 8.46732
3 -2.40912 -11.9927 9.06182
3 -5.70734 -8.7427 8.71768
3 -8.28854 -8.74745 5.80042
3 -2.70553 -8.61674 5.94144
4 0.0659736 -5.98963 -11.1589
4 -0.255796 -0.444618 -11.2837
3 2.83269 -6.06172 -8.34472
3 0.0343579 -3.08906 -8.65896
3 2.86081 -8.76785 -11.7739
3 -3.01543 -8.45786 -11.7405
1 0.218353 -5.91154 -5.80714
1 -0.0567105 -5.68969 0.422329
4 -0.453258 -11.0729 -5.74911
1 -0.0229795 0.101827 -0.233905
2 -3.19351 -8.56113 -8.80287
2 -2.86781 -2.91267 -8.96546
2 -2.89693 -8.57645 -2.91619
2 -2.94601 -2.91109 -3.13753
3 -3.01039 -5.76754 -8.94603
3 -0.162282 -8.58954 -8.66243
3 2.76406 -6.01342 3.37531
3 -0.145199 -2.9067 3.32008
3 -2.50659 -5.73957 -2.77168
3 0.0844798 -8.85584 -2.68415
3 2.95153 -5.95227 -2.78151
3 -0.152348 -2.55991 -3.32411
3 -3.18441 -2.92622 -6.08547
3 2.72752 -2.97653 -5.90629
3 3.1653 -8.80462 0.0266091
3 -3.09964 -8.55531 0.186952
1 -0.174696 -5.53824 5.81024
4 0.317266 -5.73854 11.2818
4 -0.107295 -11.1641 5.79894
4 0.15596 -0.0272401 11.3541
2 -2.80927 -8.75011 3.08167
2 -2.92834 -3.00658 2.97211
2 -2.66972 -8.85698 8.87267
2 -2.63736 -2.74123 9.06338
3 -2.75812 -5.81848 3.0664
3 0.161129 -8.62596 2.95388
3 -2.75534 -5.70037 8.59371
3 0.309077 -8.5856 8.6845
3 3.11351 -5.78114 8.03513
3 0.256313 -2.85494 8.93431
3 -3.04338 -2.80909 5.95572
3 2.72135 -1.94616 5.73901
3 3.43185 -8.21873 11.6916
3 -2.96484 -8.54464 12.0004
4 5.79267 0.0368274 -11.0566
4 5.78149 5.39753 -10.8286
3 8.44035 -0.224032 -8.63483
3 5.85242 2.64721 -8.53847
3 8.54478 -2.92083 -12.1101
3 2.45875 -3.07402 -11.7622
1 5.83001 -0.172072 -5.82833
1 5.79571 0.0120065 -0.194257
1 5.60022 -5.8695 -5.72961
1 5.73758 5.8026 -0.496628
2 2.75017 -3.13229 -8.85347
2 2.86454 2.58691 -8.88231
2 2.63284 -2.9407 -2.97783
2 3.0714 2.91638 -2.90773
3 2.67581 -0.204503 -8.66743
3 5.64716 -3.01901 -8.68054
3 8.16005 0.0565257 3.17539
3 5.9845 3.53446 2.61065
3 2.78438 -0.0170869 -2.65122
3 5.73585 -2.83911 -3.22
3 8.64757 -0.291536 -3.0664
3 5.97413 2.61233 -3.39359
3 2.69929 2.39433 -5.74522
3 8.89663 2.55354 -5.86392
3 8.35962 -2.88931 -0.111095
3 2.57468 -3.31229 0.0647355
1 5.87541 0.225417 6.00334
4 6.07768 -0.21656 11.3249
1 6.24817 -6.09248 5.86441
4 5.33227 6.0142 10.9547
2 2.74524 -3.05773 2.98122
2 3.11226 2.95384 2.88351
2 3.20198 -2.68497 8.52314
2 2.79382 2.93861 8.71776
3 3.08627 -0.0852254 2.38166
3 5.95743 -3.51196 2.92266
3 3.08039 0.185161 8.95957
3 6.04212 -2.91957 8.46453
3 8.83888 0.041193 8.77648
3 5.78199 2.99595 8.77512
3 3.56681 2.96723 5.68273
3 8.67766 2.9029 5.98776
3 9.24076 -2.89562 11.7472
3 3.19794 -3.06591 11.5385
4 11.5625 5.34885 -10.9393
3 12.0951 8.30449 -9.02417
3 8.7369 2.92338 -11.6098
4 11.2678 5.37373 -6.11535
4 11.3116 5.25182 -0.468411
4 11.1397 -0.541698 -6.02062
4 10.9736 11.5685 -0.330582
2 8.74059 2.72955 -8.70818
2 8.93972 8.70798 -8.88376
2 9.00922 2.71997 -2.98956
2 8.9088 8.62056 -3.07798
3 8.72863 5.62538 -8.62429
3 11.8236 2.47128 -8.55442
3 12.0543 9.87987 2.69319
3 8.83648 5.59219 -3.17368
3 12.103 2.59991 -2.85516
3 11.7316 8.71044 -2.91925
3 8.98213 8.30702 -5.98829
3 8.60834 2.56401 -0.2136
4 11.1955 5.88347 6.18115
4 10.7445 5.95482 11.3446
4 11.3297 0.0749936 5.71796
2 8.81501 2.81756 2.70724
2 8.9133 8.79469 2.65708
2 8.73273 3.13144 8.94545
2 8.55989 9.04909 8.48773
3 9.5699 5.94186 2.87706
3 11.733 2.11934 2.5294
3 8.29566 5.92216 8.46022
3 11.7437 3.34083 8.78126
3 11.4986 8.61824 8.6315
3 8.69199 8.68842 5.59175
3 8.59031 3.05355 11.8366
4 -0.283128 -10.8052 -11.3948
4 0.0835006 -11.1041 0.0270851
4 0.182109 -10.6386 11.6621
4 5.30511 -11.3977 -11.6408
4 5.5895 -5.78875 -11.303
3 8.34974 -12.1702 -8.24881
3 5.59282 -9.12019 -8.88382
4 5.54083 -11.0306 -5.97093
4 5.90659 -11.4423 -0.0870993
1 5.53072 -5.86184 -0.0782909
2 2.64066 -9.14652 -8.8663
2 2.94793 -8.94028 -2.94958
3 2.38507 -12.026 -8.88448
3 8.52072 -11.913 2.64284
3 5.91414 -8.66101 2.89334
3 3.20416 -11.9842 -2.89455
3 9.27518 -11.9309 -2.67601
3 5.85885 -8.68681 -3.07356
3 2.71792 -8.93568 -5.95441
3 8.37282 -8.83849 -5.82272
4 5.96786 -11.6337 5.17474
4 6.02003 -11.0013 11.5953
4 6.1248 -5.58516 10.8778
2 2.98964 -8.84671 3.00269
2 3.22162 -8.68286 8.89607
3 3.19194 -12.0541 2.86169
3 2.93225 -11.7786 9.62697
3 8.34817 -11.807 8.5413
3 6.18378 -8.68551 8.71373
3 3.21428 -9.2979 6.02016
3 9.01839 -8.80158 5.86677
4 10.8777 -6.2024 -11.2169
4 11.0042 -0.227676 -10.9669
3 11.418 -3.20913 -8.9208
3 8.25103 -8.80004 -11.8509
4 10.7454 -5.87078 -5.87132
4 11.293 -5.67021 -0.0896965
4 11.0115 -11.2228 -5.76688
4 11.2279 -0.426965 -0.259545
2 8.57918 -9.06666 -8.92465
2 8.41906 -3.24927 -8.97386
2 8.79609 -8.81517 -3.06221
2 8.79865 -3.15712 -3.10762
3 8.24985 -6.17048 -8.83245
3 11.4771 -8.66179 -8.47798
3 11.6448 -2.77766 2.65056
3 8.50644 -5.98561 -2.83993
3 11.6887 -8.77101 -2.86211
3 11.7733 -3.48459 -3.215
3 8.32513 -3.14725 -6.03687
3 8.66153 -8.68785 -0.0943881
4 11.1594 -5.45764 5.9107
4 11.7067 -5.93056 11.045
4 11.218 -11.3802 6.39277
4 11.5911 -0.02859 11.0829
2 9.03812 -8.80498 2.88027
2 8.67408 -2.78238 2.84466
2 9.16272 -8.89514 8.86478
2 9.06477 -2.83723 8.69
3 9.11934 -5.86306 2.96692
3 11.9084 -9.32384 3.23986
3 9.02513 -5.87832 8.70203
3 12.2828 -8.33842 8.14461
3 12.0009 -2.42681 8.26674
3 8.74818 -2.73072 5.85761
3 9.11509 -8.41646 11.8055
4 11.3635 -10.9574 0.103178
