421
 Atoms. Timestep: 868
4 -11.0995 11.051 -5.74942
4 -11.0995 11.051 5.74942
4 -11.0869 5.73585 -11.0326
3 -8.54478 5.76042 -8.4894
3 -11.7425 8.36244 -8.37326
3 -8.71652 2.81622 -11.6667
4 -11.1293 5.65473 -5.71899
4 -11.1803 5.66624 -3.06708e-07
4 -11.1291 0.00571276 -5.66119
4 -11.1014 11.0858 -5.07506e-07
3 -11.7417 2.87023 -8.60708
3 -8.74039 5.75909 2.85306
3 -11.7731 8.6777 2.84436
3 -11.8034 2.8421 -2.89372
3 -8.74039 5.75909 -2.85306
3 -11.7731 8.6777 -2.84436
3 -8.60605 8.46806 -5.75194
3 -8.67903 2.86201 -1.48576e-07
4 -11.1293 5.65473 5.71898
4 -11.0869 5.73585 11.0326
4 -11.1291 0.00571306 5.66119
3 -11.8034 2.8421 2.89372
3 -11.7417 2.87023 8.60708
3 -8.54478 5.76042 8.4894
3 -11.7425 8.36244 8.37326
3 -8.60605 8.46806 5.75194
3 -8.71652 2.81622 11.6667
4 -5.79997 10.9673 -11.0424
3 -2.89188 11.7227 -8.80528
3 -2.89302 8.52781 -11.5973
3 -8.38861 8.31901 -11.6642
4 -5.85046 11.0419 -5.54879
4 -5.73288 10.8595 -4.64148e-07
1 -5.90231 5.66827 -5.71313
2 -8.77493 8.72887 -8.7157
2 -8.78312 8.67933 -2.88168
3 -8.41721 11.6818 -8.34794
3 -5.80188 8.51844 -8.39587
3 -3.06968 11.5867 2.5998
3 -8.67339 11.6527 -2.84878
3 -5.84874 8.42237 -2.85738
3 -3.06968 11.5867 -2.5998
3 -2.97407 8.12972 -1.4542e-07
3 -8.62017 8.47227 -3.8495e-07
4 -5.85046 11.0419 5.54879
4 -5.79997 10.9673 11.0424
1 -5.90231 5.66827 5.71313
2 -8.78312 8.67933 2.88168
2 -8.77493 8.72887 8.7157
3 -8.67339 11.6527 2.84877
3 -5.84874 8.42237 2.85738
3 -8.41721 11.6818 8.34794
3 -5.80188 8.51844 8.39586
3 -2.89187 11.7227 8.80528
3 -2.89302 8.52781 11.5973
3 -8.38861 8.31901 11.6642
4 0.267692 10.9705 -5.68318
4 0.267693 10.9705 5.68318
4 -11.0879 -5.72443 -11.0326
4 -11.1534 0.00571458 -11.0119
3 -8.54581 -5.74946 -8.4894
3 -11.7422 -2.85869 -8.60708
3 -8.39011 -8.30808 -11.6642
4 -11.1303 -5.64331 -5.71898
4 -11.1813 -5.65481 3.03007e-07
4 -11.1014 -11.0396 -5.74942
4 -11.1441 0.00571426 -1.84485e-09
3 -11.744 -8.35091 -8.37326
3 -8.74142 -5.74809 2.85306
3 -11.8039 -2.83055 2.89372
3 -11.7746 -8.66616 -2.84436
3 -8.74142 -5.74809 -2.85306
3 -11.8039 -2.83055 -2.89372
3 -8.65594 -2.8443 -5.76594
3 -8.62169 -8.46129 3.82099e-07
4 -11.1303 -5.64331 5.71899
4 -11.0879 -5.72443 11.0326
4 -11.1014 -11.0396 5.74942
4 -11.1534 0.00571562 11.0119
3 -11.7746 -8.66616 2.84436
3 -11.744 -8.35091 8.37326
3 -8.54581 -5.74946 8.4894
3 -11.7422 -2.85869 8.60708
3 -8.65594 -2.8443 5.76594
3 -8.39011 -8.30808 11.6642
4 -5.83816 0.00523757 -11.0412
4 -5.65739 5.73663 -10.8983
3 -2.78443 0.00496416 -8.95818
3 -5.81855 2.83584 -8.51403
3 -2.997 -3.14743 -11.6308
3 -8.71702 -2.80522 -11.6667
1 -5.93438 0.00524667 -5.6619
1 -6.04638 0.00525699 -1.00021e-09
1 -5.90333 -5.65778 -5.71313
1 -5.99254 5.69907 -2.64359e-07
2 -8.74846 -2.87513 -8.69495
2 -8.74794 2.88612 -8.69495
2 -8.83496 -2.8707 -2.88407
2 -8.83444 2.88171 -2.88407
3 -8.5996 0.00548564 -8.46952
3 -5.81906 -2.82537 -8.51403
3 -3.03209 0.00498673 2.23356
3 -5.87424 2.91585 2.85882
3 -8.63167 0.00548877 -2.85406
3 -5.87476 -2.90536 -2.85882
3 -3.03209 0.00498647 -2.23356
3 -5.87424 2.91585 -2.85882
3 -8.65543 2.85528 -5.76594
3 -2.97253 2.36851 -5.72788
3 -2.9456 -3.54047 4.94658e-08
3 -8.67955 -2.85103 1.45695e-07
1 -5.93438 0.00524723 5.6619
4 -5.83816 0.00523907 11.0412
1 -5.90333 -5.65778 5.71313
4 -5.65739 5.73663 10.8983
2 -8.83496 -2.8707 2.88407
2 -8.83444 2.88171 2.88407
2 -8.74846 -2.87513 8.69495
2 -8.74794 2.88612 8.69495
3 -8.63167 0.00548902 2.85406
3 -5.87476 -2.90536 2.85882
3 -8.5996 0.0054864 8.46952
3 -5.81906 -2.82537 8.51403
3 -2.78443 0.00496462 8.95818
3 -5.81855 2.83584 8.51403
3 -8.65543 2.85528 5.76594
3 -2.97253 2.36851 5.72788
3 -2.997 -3.14743 11.6308
3 -8.71702 -2.80522 11.6667
4 -0.273515 5.68792 -10.9658
4 -0.00266905 11.0328 -11.0281
3 2.81306 5.7475 -8.94304
3 -0.00289794 8.48111 -8.47639
3 3.06364 2.60424 -11.5817
3 -2.99643 3.1574 -11.6308
1 -0.00314141 5.76686 -5.76214
1 0.0392051 5.78482 1.15703e-07
1 -0.0460031 0.00471865 -5.78011
4 -0.36143 10.9046 -3.38831e-07
2 -2.90954 2.87317 -8.64892
2 -2.91114 8.72234 -8.62637
2 -2.9381 2.86499 -2.84026
2 -2.93469 8.61486 -2.87634
3 -2.93363 5.76964 -8.24677
3 0.00622964 2.87294 -8.44657
3 2.96594 5.73233 2.36353
3 -0.0125312 8.45129 2.86822
3 -2.91451 5.72427 -3.43524
3 -0.00340638 2.81294 -2.80823
3 2.96594 5.73233 -2.36353
3 -0.0125313 8.45129 -2.86822
3 -2.81906 8.94801 -5.74304
3 2.92757 8.25122 -5.76467
3 3.02498 2.238 1.32612e-07
3 -2.94497 3.55042 -5.04374e-08
1 -0.00314142 5.76686 5.76214
4 -0.273516 5.68792 10.9658
1 -0.0460031 0.00471887 5.78011
4 -0.00266905 11.0328 11.0281
2 -2.9381 2.86499 2.84026
2 -2.93469 8.61486 2.87634
2 -2.90954 2.87317 8.64892
2 -2.91114 8.72234 8.62637
3 -2.91451 5.72427 3.43524
3 -0.00340638 2.81294 2.80823
3 -2.93363 5.76964 8.24677
3 0.00622955 2.87294 8.44657
3 2.81306 5.7475 8.94304
3 -0.00289794 8.48111 8.47639
3 -2.81906 8.94801 5.74304
3 2.92757 8.25122 5.76467
3 3.06364 2.60423 11.5817
3 -2.99643 3.1574 11.6308
4 5.79462 11.0466 -10.9621
3 8.38309 11.6681 -8.31354
3 8.41169 8.3519 -11.6763
3 2.8864 8.80974 -11.7177
4 5.65157 10.9025 -5.7314
4 5.83183 11.0454 7.57846e-07
1 5.89601 5.71732 -5.66302
2 2.90538 8.63082 -8.71736
2 2.90326 8.65338 -2.8682
3 2.88751 11.6018 -8.52283
3 5.79608 8.40006 -8.51321
3 8.7105 11.6706 2.81072
3 2.99044 11.6352 -3.15241
3 5.81225 8.51823 -2.83061
3 8.7105 11.6706 -2.81072
3 8.59304 8.47347 3.85166e-07
3 2.77791 8.96264 2.33682e-07
4 5.65157 10.9025 5.7314
4 5.79462 11.0466 10.9621
1 5.89601 5.71732 5.66302
2 2.90326 8.65338 2.8682
2 2.90538 8.63082 8.71736
3 2.99044 11.6352 3.15241
3 5.81225 8.51823 2.83061
3 2.88751 11.6018 8.52283
3 5.79608 8.40006 8.51321
3 8.38309 11.6681 8.31355
3 8.41169 8.3519 11.6763
3 2.8864 8.80974 11.7177
4 11.0811 11.0364 -5.73014
4 11.0811 11.0364 5.73014
4 -11.1034 -11.0744 5.03831e-07
4 -5.80193 -10.9568 -11.0424
4 -5.65842 -5.72618 -10.8983
3 -2.89398 -11.7127 -8.80528
3 -5.80341 -8.50797 -8.39586
4 -5.85244 -11.0315 -5.54879
4 -5.73483 -10.849 4.6225e-07
1 -5.99356 -5.68856 2.62377e-07
2 -8.7765 -8.71787 -8.7157
2 -8.78467 -8.66832 -2.88168
3 -8.4193 -11.6708 -8.34794
3 -3.07176 -11.5767 2.5998
3 -5.85025 -8.41189 2.85738
3 -8.67548 -11.6417 -2.84877
3 -3.07176 -11.5767 -2.5998
3 -5.85025 -8.41189 -2.85738
3 -8.60756 -8.45709 -5.75194
3 -2.82067 -8.93807 -5.74304
4 -5.85244 -11.0315 5.54879
4 -5.80193 -10.9568 11.0424
4 -5.65842 -5.72618 10.8983
2 -8.78467 -8.66832 2.88168
2 -8.7765 -8.71787 8.7157
3 -8.67548 -11.6417 2.84878
3 -8.4193 -11.6708 8.34794
3 -2.89398 -11.7127 8.80528
3 -5.80341 -8.50797 8.39587
3 -8.60756 -8.45709 5.75194
3 -2.82067 -8.93807 5.74304
4 -0.274536 -5.67844 -10.9658
4 0.355091 0.00468312 -10.8999
3 2.81203 -5.73858 -8.94304
3 0.005715 -2.86351 -8.44657
3 2.88482 -8.80083 -11.7177
3 -2.89455 -8.51786 -11.5973
1 -0.00417512 -5.75743 -5.76214
1 0.0381681 -5.77539 -1.15689e-07
4 0.265726 -10.9611 -5.68318
1 -0.00365827 0.00471496 1.80797e-13
2 -2.91271 -8.71239 -8.62637
2 -2.91006 -2.86322 -8.64892
2 -2.93623 -8.6049 -2.87634
2 -2.93861 -2.85504 -2.84026
3 -2.93467 -5.75969 -8.24677
3 -0.00441859 -8.47168 -8.47639
3 2.96491 -5.72343 2.36353
3 -0.00391017 -2.80351 2.80823
3 -2.91554 -5.71432 -3.43524
3 -0.0140465 -8.44185 -2.86822
3 2.96491 -5.72343 -2.36353
3 -0.00391017 -2.80351 -2.80823
3 -2.97295 -2.35855 -5.72788
3 2.9074 -3.43079 -5.71929
3 2.77631 -8.95371 -2.32761e-07
3 -2.97553 -8.11976 1.44436e-07
1 -0.00417512 -5.75743 5.76214
4 -0.274535 -5.67844 10.9658
4 0.265725 -10.9611 5.68318
4 0.355091 0.00468243 10.8999
2 -2.93623 -8.6049 2.87634
2 -2.93861 -2.85504 2.84026
2 -2.91271 -8.71239 8.62637
2 -2.91006 -2.86322 8.64892
3 -2.91554 -5.71432 3.43524
3 -0.0140466 -8.44185 2.86822
3 -2.93467 -5.75969 8.24677
3 -0.0044186 -8.47168 8.47639
3 2.81203 -5.73858 8.94304
3 0.00571509 -2.86351 8.44657
3 -2.97295 -2.35855 5.72788
3 2.9074 -3.43079 5.71929
3 2.88482 -8.80083 11.7177
3 -2.89455 -8.51786 11.5973
4 5.72654 0.00420143 -10.8543
4 5.84463 5.55298 -11.0367
3 8.61361 0.00394238 -8.46678
3 5.84243 2.86157 -8.41713
3 8.66686 -2.84484 -11.6472
3 3.06317 -2.59536 -11.5817
1 5.98573 0.00417797 -5.69382
1 6.03906 0.00417292 1.00227e-09
1 5.89499 -5.70895 -5.66302
1 5.92757 5.66608 2.81264e-07
2 2.92789 -2.87189 -8.60988
2 2.9284 2.88079 -8.60988
2 2.93078 -2.83581 -2.86001
2 2.93129 2.84471 -2.86001
3 2.96749 0.0044486 -8.12474
3 5.84192 -2.85319 -8.41713
3 8.67197 0.00393661 2.85652
3 5.86744 2.86301 2.91061
3 2.93797 0.00445115 -3.54545
3 5.86693 -2.85463 -2.91061
3 8.67197 0.0039369 -2.85652
3 5.86744 2.86301 -2.91061
3 2.90801 3.4397 -5.71929
3 8.73384 2.85699 -5.75359
3 8.6241 -2.85012 -1.26786e-07
3 3.02458 -2.22912 -1.31611e-07
1 5.98573 0.00417744 5.69382
4 5.72654 0.00420049 10.8543
1 5.89499 -5.70895 5.66302
4 5.84463 5.55298 11.0367
2 2.93078 -2.83581 2.86001
2 2.93129 2.84471 2.86001
2 2.92789 -2.87189 8.60988
2 2.9284 2.88079 8.60988
3 2.93797 0.00445104 3.54545
3 5.86693 -2.85463 2.91061
3 2.96749 0.0044483 8.12474
3 5.84192 -2.85319 8.41713
3 8.61361 0.0039416 8.46678
3 5.84243 2.86157 8.41713
3 2.90801 3.4397 5.71929
3 8.73384 2.85699 5.75359
3 8.66686 -2.84484 11.6472
3 3.06317 -2.59536 11.5817
4 11.0936 5.75314 -11.0453
3 11.7367 8.37693 -8.35668
3 8.66737 2.85271 -11.6472
4 11.123 5.7227 -5.64902
4 11.1223 5.66491 1.53629e-07
4 11.1735 0.00371268 -5.66053
4 11.1471 11.0156 5.27674e-07
2 8.77684 2.88561 -8.67383
2 8.76918 8.71963 -8.72337
2 8.82764 2.888 -2.8762
2 8.74166 8.69888 -2.88062
3 8.60001 5.75588 -8.46257
3 11.7668 2.84802 -8.67193
3 11.7354 8.61075 2.86446
3 8.64889 5.76988 -2.84979
3 11.7966 2.89738 -2.83633
3 11.7354 8.61075 -2.86446
3 8.53874 8.49335 -5.75494
3 8.62461 2.858 1.29486e-07
4 11.123 5.7227 5.64902
4 11.0936 5.75314 11.0453
4 11.1735 0.00371206 5.66053
2 8.82764 2.888 2.8762
2 8.74166 8.69888 2.88063
2 8.77684 2.8856 8.67383
2 8.76918 8.71963 8.72337
3 8.64889 5.76988 2.84979
3 11.7966 2.89738 2.83633
3 8.60001 5.75588 8.46257
3 11.7668 2.84802 8.67193
3 11.7367 8.37693 8.35668
3 8.53874 8.49335 5.75494
3 8.66737 2.85271 11.6472
4 -0.00464747 -11.0234 -11.0281
4 -0.363385 -10.8951 3.38713e-07
4 -0.00464747 -11.0234 11.0281
4 5.79264 -11.0382 -10.9621
4 5.84363 -5.5446 -11.0367
3 8.381 -11.6602 -8.31355
3 5.79458 -8.39167 -8.51321
4 5.64961 -10.8941 -5.7314
4 5.82985 -11.037 -7.55914e-07
1 5.92655 -5.65771 -2.79298e-07
2 2.90383 -8.62191 -8.71736
2 2.90171 -8.64447 -2.8682
3 2.88543 -11.5929 -8.52283
3 8.70841 -11.6628 2.81072
3 5.81073 -8.50984 2.83061
3 2.98835 -11.6263 -3.15241
3 8.70841 -11.6628 -2.81072
3 5.81073 -8.50984 -2.83061
3 2.92609 -8.24232 -5.76467
3 8.53722 -8.48545 -5.75494
4 5.64961 -10.8941 5.7314
4 5.79264 -11.0382 10.9621
4 5.84363 -5.5446 11.0367
2 2.90171 -8.64447 2.8682
2 2.90383 -8.62191 8.71736
3 2.98835 -11.6263 3.15241
3 2.88543 -11.5929 8.52283
3 8.381 -11.6602 8.31354
3 5.79458 -8.39167 8.51321
3 2.92609 -8.24232 5.76467
3 8.53722 -8.48545 5.75494
4 11.0926 -5.7457 -11.0453
4 11.0951 0.00371991 -11.0801
3 11.7663 -2.8407 -8.67193
3 8.41019 -8.34398 -11.6763
4 11.122 -5.71527 -5.64902
4 11.1213 -5.65748 -1.49943e-07
4 11.0791 -11.0289 -5.73014
4 11.1367 0.00371567 1.84511e-09
2 8.76762 -8.71177 -8.72337
2 8.77632 -2.87775 -8.67383
2 8.7401 -8.69102 -2.88063
2 8.82713 -2.88015 -2.8762
3 8.59897 -5.74799 -8.46257
3 11.7352 -8.3696 -8.35668
3 11.7961 -2.89007 2.83633
3 8.64785 -5.762 -2.84979
3 11.7339 -8.60342 -2.86446
3 11.7961 -2.89007 -2.83633
3 8.73333 -2.84913 -5.75359
3 8.59152 -8.46558 -3.82308e-07
4 11.122 -5.71527 5.64902
4 11.0926 -5.7457 11.0453
4 11.0791 -11.0289 5.73014
4 11.0951 0.00371889 11.0801
2 8.7401 -8.69102 2.88062
2 8.82713 -2.88015 2.8762
2 8.76762 -8.71177 8.72337
2 8.77632 -2.87775 8.67383
3 8.64785 -5.762 2.84979
3 11.7339 -8.60342 2.86446
3 8.59897 -5.748 8.46257
3 11.7352 -8.3696 8.35668
3 11.7663 -2.8407 8.67193
3 8.73333 -2.84913 5.75359
3 8.41019 -8.34398 11.6763
4 11.1451 -11.0082 -5.23981e-07
