63
 Atoms. Timestep: 82
4 -5.76516 5.77992 2.21543e-15
4 -5.76912 0.0352446 -5.74468
3 -3.01664 0.0333473 -2.9922
3 -6.42438 2.86574 -2.83005
3 -2.85644 -2.79681 -6.40189
4 -5.71642 0.0352083 5.34816e-17
4 -5.76912 0.0352446 5.74468
4 -5.77308 -5.70944 -2.91641e-15
3 -6.42828 -2.79435 -2.83005
3 -6.42828 -2.79435 2.83005
3 -3.01664 0.0333473 2.9922
3 -6.42438 2.86574 2.83005
3 -3.01458 3.02555 -1.11073e-13
3 -2.85644 -2.79681 6.40189
4 -0.0204794 5.77596 -5.74468
3 2.81002 6.43122 -2.83005
3 2.80756 2.85938 -6.40189
3 -2.85253 2.86328 -6.40189
4 -0.0205157 5.72326 2.7436e-16
4 -0.0204794 5.77596 5.74468
1 -0.0244392 0.0312848 1.57467e-17
2 -3.23473 3.246 -3.2125
2 -3.23473 3.246 3.2125
3 -2.85007 6.43513 -2.83005
3 -0.0223767 3.02349 -2.9922
3 -2.85007 6.43513 2.83005
3 -0.0223767 3.02349 2.9922
3 2.81002 6.43122 2.83005
3 2.80756 2.85938 6.40189
3 -2.85253 2.86328 6.40189
4 5.7242 5.77201 -1.95073e-15
4 -0.028399 -5.7134 -5.74468
4 -0.0244392 0.0312848 -5.69198
3 2.80119 -6.37256 -2.83005
3 -0.0265017 -2.96092 -2.9922
4 -0.0283626 -5.66069 1.48685e-16
4 -0.028399 -5.7134 5.74468
4 -0.0244392 0.0312848 5.69198
2 -3.23916 -3.179 -3.2125
2 -3.23916 -3.179 3.2125
3 -2.8589 -6.36866 -2.83005
3 -2.8589 -6.36866 2.83005
3 2.80119 -6.37256 2.83005
3 -0.0265017 -2.96092 2.9922
3 -3.0187 -2.95885 1.11087e-13
3 2.9657 -2.96298 -1.09192e-13
4 5.72024 0.027325 -5.74468
3 6.3794 2.85692 -2.83005
3 2.80366 -2.80071 -6.40189
4 5.66754 0.0273613 6.83346e-16
4 5.72024 0.027325 5.74468
4 5.71628 -5.71736 3.02678e-15
2 3.18585 -3.18343 -3.2125
2 3.19028 3.24157 -3.2125
2 3.18585 -3.18343 3.2125
2 3.19028 3.24157 3.2125
3 2.96776 0.0292223 -2.9922
3 6.3755 -2.80317 -2.83005
3 2.96776 0.0292223 2.9922
3 6.3755 -2.80317 2.83005
3 6.3794 2.85692 2.83005
3 2.96982 3.02142 1.10331e-13
3 2.80366 -2.80071 6.40189
