7407
 Atoms. Timestep: 111306
3 -28.9496 32.4032 -28.9058
3 -28.7257 28.8251 -32.2207
4 -31.7008 32.0673 -26.3548
4 -31.1773 31.8116 -20.746
4 -31.883 26.0781 -25.9519
3 -32.5523 29.0368 -29.1294
3 -28.6561 32.2339 -17.6419
3 -32.4017 29.6207 -23.5802
3 -28.9588 32.39 -23.5981
3 -29.0258 29.04 -20.5414
4 -30.9529 32.1143 -14.6197
4 -31.1048 31.828 -8.94614
4 -31.4702 26.0961 -14.1666
3 -32.041 29.7682 -17.7953
3 -28.6959 32.1103 -5.92804
3 -32.1431 29.3844 -12.0069
3 -28.6909 32.1604 -11.8031
3 -28.8424 29.2121 -8.93888
4 -31.3915 31.6814 -2.80628
4 -31.7872 31.4668 2.83558
4 -31.5693 26.1188 -2.66723
3 -32.1211 29.655 -5.86159
3 -29.2422 32.4018 5.43309
3 -32.313 28.8106 0.269262
3 -29.2171 32.1425 0.00115089
3 -29.2155 28.9518 2.81356
4 -31.5107 31.9138 8.71849
4 -30.7947 32.0145 14.3559
4 -31.8223 26.1728 8.43088
3 -32.5536 29.3981 5.65022
3 -28.5606 32.0841 17.6064
3 -32.1091 29.6465 11.9067
3 -28.6572 31.879 11.4455
3 -29.1058 28.7131 14.5277
4 -30.9729 32.2075 20.5572
4 -31.5847 32.1666 26.3674
4 -31.8243 25.5991 20.6636
3 -32.2834 30.3031 17.6794
3 -28.6434 32.3118 28.9805
3 -32.547 30.0783 23.4964
3 -28.9741 32.2099 23.4988
3 -29.3719 29.2005 26.6068
4 -31.2734 26.8411 31.9046
3 -32.321 29.4031 29.2697
4 -26.1347 31.5234 -26.3694
4 -26.2028 31.4956 -14.678
4 -26.0185 31.6245 -2.90375
4 -26.1895 31.2561 8.6215
4 -26.0942 31.2224 20.3638
4 -26.1858 31.5891 31.7469
4 -31.5729 20.3845 -31.8718
4 -31.5427 26.2422 -31.643
3 -29.5363 20.3393 -28.6697
3 -32.3319 23.2511 -29.3947
3 -29.2549 17.5485 -32.1327
4 -31.9176 20.3223 -25.8538
4 -31.5549 20.8012 -20.3812
4 -31.642 14.4048 -26.0401
4 -31.2414 26.2298 -20.6152
3 -32.3153 17.431 -29.4924
3 -28.8794 20.5141 -17.5667
3 -32.3674 23.3869 -17.698
3 -32.2825 17.5877 -23.4154
3 -29.1012 20.6276 -23.3265
3 -32.4856 23.544 -23.1381
3 -29.2781 23.3235 -26.2935
3 -28.5732 18.0172 -20.519
4 -31.6243 20.3709 -14.5276
4 -31.0153 20.3886 -8.53037
4 -31.6198 13.747 -14.5383
4 -31.2655 25.766 -8.56196
3 -32.4799 18.4013 -17.876
3 -28.8608 20.3406 -5.72211
3 -31.868 23.0199 -5.9446
3 -32.173 18.2378 -11.4445
3 -28.752 20.2408 -11.9145
3 -31.7556 23.0831 -11.2794
3 -29.2254 23.3022 -14.4879
3 -28.8671 17.3133 -8.79837
4 -31.3257 19.9491 -2.4375
4 -31.8137 20.3162 2.61506
4 -31.1727 14.673 -2.78242
4 -31.5833 26.0172 2.73921
3 -32.1029 17.4879 -5.82018
3 -29.5972 20.3955 5.66585
3 -32.4742 23.7524 5.47964
3 -31.8727 17.1615 0.0400072
3 -28.7496 20.4671 0.191156
3 -32.1331 23.0175 0.0175686
3 -29.464 23.04 -2.80666
3 -29.2627 17.5006 3.08667
4 -31.5116 20.1636 9.03881
4 -31.0672 20.4209 14.695
4 -31.3926 14.7353 9.11398
4 -31.5123 25.5118 14.6466
3 -32.3914 17.5295 6.25027
3 -28.8848 20.4683 17.7894
3 -32.1027 22.7721 17.3722
3 -32.3351 17.2989 11.674
3 -28.7426 20.2246 11.884
3 -32.0368 22.9643 11.9047
3 -29.4633 23.2375 8.7818
3 -28.9364 17.5364 14.537
4 -32.0058 20.3288 20.5387
4 -31.8352 20.4596 26.0499
4 -31.6144 14.3916 20.4875
4 -31.8842 26.204 26.8195
3 -32.1943 17.5078 17.0682
3 -29.0798 20.5678 29.4004
3 -32.153 23.6829 29.5312
3 -32.4936 17.6418 23.2868
3 -29.3553 20.4021 23.3669
3 -32.557 23.2225 23.7767
3 -28.9471 23.3522 20.4772
3 -29.3042 17.5128 26.2938
4 -31.4774 20.9309 32.0725
4 -31.8764 15.3539 31.5236
3 -32.321 17.924 29.1044
3 -28.864 23.68 32.1834
4 -26.1899 25.8939 -31.4104
4 -26.2033 31.5438 -31.7376
3 -23.3108 26.0106 -29.2631
3 -26.2971 29.1918 -29.1093
3 -23.8003 23.0688 -32.6018
3 -29.0622 23.6597 -32.2441
1 -26.4874 25.804 -26.3719
1 -26.1194 26.2568 -20.5803
1 -26.1863 20.1446 -26.465
4 -26.2213 31.6208 -20.8948
2 -29.3751 23.2784 -29.158
2 -29.3294 29.4151 -29.2344
2 -29.1572 23.5417 -23.4472
2 -29.4106 29.3649 -23.4575
3 -29.0401 26.1717 -29.0754
3 -26.4968 23.0669 -29.162
3 -22.4949 26.4399 -17.6373
3 -26.0761 29.0514 -17.5147
3 -29.288 26.3692 -23.5675
3 -26.2663 23.612 -23.603
3 -23.169 26.1816 -23.1412
3 -26.3762 29.1209 -23.5268
3 -29.3284 29.1927 -26.3134
3 -22.952 28.8963 -26.3691
3 -23.4107 23.2242 -20.4272
3 -28.98 23.5357 -20.4618
1 -26.3324 26.4297 -14.374
1 -25.6207 26.0997 -8.67667
1 -26.2289 20.1559 -14.6738
4 -26.0975 31.5109 -8.79192
2 -29.2348 23.3959 -17.4598
2 -29.1483 29.0849 -17.5618
2 -28.9555 23.2221 -11.6338
2 -29.1717 29.0377 -11.7881
3 -29.4243 26.233 -17.3596
3 -26.2021 23.9299 -17.6723
3 -23.2975 26.2353 -5.80787
3 -26.2158 29.0283 -5.84649
3 -28.8751 26.2076 -11.291
3 -26.1154 23.5004 -11.993
3 -23.1866 26.2899 -11.8806
3 -26.0467 29.21 -11.6667
3 -28.7583 29.3505 -14.6993
3 -23.1259 29.4591 -14.6334
3 -23.7536 22.9678 -8.77249
3 -28.3246 23.4076 -8.53145
1 -25.6933 26.4239 -3.04934
1 -25.9619 26.0294 2.42656
1 -26.2301 20.308 -2.88562
4 -26.2303 31.5754 2.65327
2 -28.9248 23.2719 -5.72539
2 -29.1019 29.1675 -5.96454
2 -29.0108 23.3967 -0.0780315
2 -29.1772 28.9163 -0.0251456
3 -29.2396 26.0584 -5.67588
3 -26.0895 23.1392 -5.17864
3 -23.5352 26.0271 5.41895
3 -26.4808 29.0395 5.78494
3 -28.7355 26.1577 -0.160215
3 -26.0595 23.3631 -0.583931
3 -22.8816 26.1967 0.318066
3 -26.2231 29.2006 -0.119183
3 -28.8046 28.9362 -3.06569
3 -23.1701 29.1697 -2.99738
3 -23.4219 22.8873 2.82219
3 -29.0398 23.3756 2.91349
1 -26.5741 26.1671 8.57163
1 -26.0451 26.2288 14.3462
1 -26.3267 20.3171 8.65953
4 -26.3924 31.3786 14.7083
2 -29.4943 23.2793 5.87948
2 -29.4698 29.2511 5.68922
2 -29.0851 23.1783 11.636
2 -29.1837 29.0899 11.6406
3 -29.3933 26.3707 5.79465
3 -26.4875 23.2352 6.16674
3 -22.4799 26.112 17.3343
3 -26.2973 28.3464 17.6975
3 -29.3608 26.2384 11.5001
3 -26.2283 23.5085 11.1933
3 -23.0283 26.3558 11.9995
3 -26.2718 28.6113 11.583
3 -29.1981 29.1498 8.7822
3 -23.4789 28.7147 8.75927
3 -23.7702 22.9295 14.442
3 -28.5994 23.4117 14.6463
1 -26.4187 26.3244 20.9205
1 -26.2074 26.1349 26.3431
1 -26.3394 20.9565 20.6366
4 -26.3967 31.5765 26.1464
2 -28.8701 23.4003 17.5587
2 -29.484 29.1779 17.5698
2 -29.5487 23.295 23.5001
2 -29.3931 29.1794 23.3797
3 -29.7592 26.2519 17.7055
3 -26.0675 24.2066 17.7922
3 -23.3612 26.3722 29.0625
3 -26.0881 29.2427 29.1857
3 -29.6234 26.2942 23.4983
3 -26.6558 23.5116 23.8185
3 -23.7535 26.2129 23.7139
3 -26.5228 28.9962 23.4381
3 -29.2448 29.1352 20.5235
3 -23.5609 28.9195 20.6091
3 -23.2791 23.3141 26.3929
3 -29.3485 23.2127 26.4066
4 -26.112 26.1263 31.6856
4 -26.2079 20.7941 31.7522
2 -29.0126 23.4955 29.3613
2 -29.113 29.2755 29.4777
3 -28.6954 26.3603 29.2965
3 -26.1844 23.4098 28.9312
3 -28.3544 29.057 32.4103
3 -23.2789 28.966 32.4721
4 -20.288 31.4173 -32.077
3 -17.5548 32.2745 -29.1287
3 -17.3193 29.4354 -32.2049
3 -23.6258 28.7667 -32.1
4 -20.6127 31.4562 -26.28
4 -20.3387 31.5078 -20.7044
1 -20.2263 26.3362 -26.4437
2 -23.4336 29.0593 -29.2473
2 -23.3739 29.0637 -23.3221
3 -23.5538 32.0367 -29.1521
3 -20.4822 28.9556 -29.2867
3 -16.8903 32.0276 -17.7217
3 -23.7178 31.9789 -23.7309
3 -20.4213 28.752 -23.405
3 -17.4477 31.8112 -23.2601
3 -17.8084 28.558 -20.3539
3 -23.5262 28.9485 -20.3155
4 -20.1246 32.0368 -14.2547
4 -20.1905 31.9526 -8.49681
1 -20.3527 26.0015 -14.1993
2 -23.1377 29.3275 -17.5036
2 -23.1541 29.3533 -11.6658
3 -23.8969 32.1863 -17.684
3 -20.4406 30.1537 -17.5077
3 -17.4978 32.1812 -5.76666
3 -22.9022 32.4232 -11.5538
3 -20.3799 29.2678 -11.4034
3 -17.4223 32.1338 -11.6978
3 -17.6215 29.145 -8.77728
3 -23.2627 28.8658 -8.90269
4 -20.4874 31.5578 -2.88919
4 -20.6766 31.3254 3.15918
1 -20.526 26.2343 -2.66453
2 -23.3339 29.2644 -6.04546
2 -23.1707 29.349 0.00254362
3 -23.6241 32.1864 -6.10284
3 -20.3088 29.1811 -5.77088
3 -17.7233 32.2616 5.72537
3 -23.3654 32.4155 0.0199915
3 -20.3745 29.1843 0.0788136
3 -17.3828 32.2394 -0.0961212
3 -17.5636 29.042 2.86612
3 -23.5684 28.9799 2.95126
4 -20.3589 31.7454 8.37903
4 -20.4441 32.0493 15.0782
1 -20.7114 26.0338 8.30502
2 -23.3579 28.9969 5.94236
2 -23.4189 29.3068 11.7764
3 -23.3966 31.9399 6.1304
3 -20.4703 28.9494 6.10618
3 -17.3976 32.2351 17.9123
3 -24.1244 32.1344 11.6926
3 -20.5765 29.7652 11.5284
3 -17.2236 32.396 11.9348
3 -17.9756 29.179 14.6904
3 -23.2978 29.0527 14.7782
4 -20.7728 31.6761 20.8487
4 -20.0555 31.9496 26.6316
1 -20.512 26.7444 20.6099
2 -23.3071 29.059 17.5988
2 -23.5369 29.1344 23.5873
3 -24.009 32.2018 17.1765
3 -20.5255 29.7481 17.8514
3 -17.5676 32.053 29.5383
3 -23.5055 31.9509 23.3242
3 -20.6588 29.1783 23.4452
3 -18.0018 32.2629 23.6453
3 -17.4747 29.2203 26.4887
3 -23.1043 29.4683 26.529
4 -20.2875 31.131 32.2131
4 -20.5951 26.2573 31.5204
2 -23.2574 29.2968 29.3289
3 -22.9629 32.3697 29.8563
3 -20.1061 29.0264 29.3305
4 -14.3161 31.6121 -26.1268
4 -14.9121 31.732 -14.4564
4 -14.6525 31.6166 -2.73927
4 -15.094 32.237 9.1285
4 -14.8897 31.7969 20.7625
4 -14.5948 31.5729 32.2823
4 -31.9057 8.54598 -31.7885
4 -31.8646 14.5029 -31.7462
3 -29.121 8.83511 -28.96
3 -32.34 11.6767 -28.8563
3 -29.5987 5.76466 -32.3711
4 -31.3325 8.5908 -26.13
4 -31.4913 8.66228 -20.4287
4 -32.0262 3.31756 -26.2717
4 -32.0349 13.9582 -20.4467
3 -32.309 5.95673 -28.9529
3 -29.0107 8.82925 -17.6681
3 -31.9228 11.4672 -17.3027
3 -31.938 6.17242 -23.5616
3 -28.9392 8.91211 -23.2595
3 -32.3236 11.4615 -23.221
3 -28.7732 11.8655 -26.2462
3 -29.0368 5.94423 -20.6334
4 -31.7634 8.8643 -14.6585
4 -31.7051 8.73011 -8.96747
4 -31.5776 2.99819 -14.7468
4 -31.3661 14.8247 -8.70196
3 -32.0459 5.79823 -17.8345
3 -28.8224 8.80021 -5.7839
3 -32.1655 12.0091 -5.60437
3 -32.4086 5.89279 -11.4946
3 -28.8345 8.79336 -11.6865
3 -31.7639 11.2901 -11.5795
3 -28.5966 11.444 -14.6477
3 -29.1162 5.88523 -8.70663
4 -31.5344 8.72563 -2.98746
4 -32.1334 8.42472 3.26924
4 -31.8962 2.94075 -2.71534
4 -32.0438 15.0611 3.12437
3 -32.0737 6.30948 -6.16399
3 -29.083 8.74168 5.73407
3 -32.2965 11.7806 6.06211
3 -32.6512 5.77888 0.177312
3 -28.9062 8.73891 0.0722386
3 -32.191 12.2258 -0.391003
3 -29.0042 11.6739 -2.91153
3 -29.1337 5.85728 2.98687
4 -31.5427 8.50915 9.13297
4 -31.0224 8.69667 14.6597
4 -31.6972 2.96099 8.92916
4 -31.5739 14.6014 14.7962
3 -32.3947 5.77174 6.15522
3 -28.549 8.79679 17.5122
3 -31.8994 11.5155 17.7512
3 -32.1541 5.81939 11.8672
3 -28.8213 8.75394 11.687
3 -32.4514 11.9399 11.9819
3 -29.2402 11.7437 9.06274
3 -29.1734 5.87836 14.7091
4 -31.3132 8.87928 20.2606
4 -31.473 8.95078 25.9944
4 -31.3591 3.14529 20.6647
4 -31.4199 14.4574 26.3883
3 -31.9993 6.07267 17.5855
3 -30.0508 8.50522 29.3655
3 -32.569 12.1786 29.051
3 -31.9577 6.62428 23.2742
3 -28.1245 8.54452 23.5245
3 -32.1013 11.7469 23.5413
3 -28.7965 11.747 20.4641
3 -28.4094 5.77587 26.6922
4 -28.166 8.82788 32.6886
4 -27.0048 3.05939 31.9423
3 -29.8263 5.62787 32.2044
3 -29.5442 12.6108 32.4148
4 -26.8726 14.7527 -31.6326
4 -26.5201 20.1272 -31.7533
3 -23.522 14.3062 -29.8519
3 -26.446 17.5173 -28.9994
3 -23.5645 11.0466 -32.6157
3 -29.7398 11.6765 -32.1631
1 -26.3372 14.6013 -26.3392
1 -26.6207 14.6594 -20.3183
1 -26.0046 8.84673 -26.6929
1 -26.2174 20.6219 -20.5474
2 -29.3408 11.5734 -29.1552
2 -29.5351 17.3556 -29.0809
2 -29.1802 11.7214 -23.2355
2 -29.2855 17.6217 -23.3244
3 -29.0763 14.5317 -28.8874
3 -26.4582 11.5275 -29.3847
3 -23.1122 14.4857 -17.7844
3 -26.5534 17.0477 -16.9451
3 -29.4683 14.7022 -23.1402
3 -26.255 11.9447 -23.5216
3 -22.9788 14.6608 -23.222
3 -26.36 17.3934 -23.7306
3 -29.4791 17.3742 -26.2664
3 -22.8359 17.1562 -26.5568
3 -23.4169 11.0212 -20.4222
3 -29.1513 11.7274 -20.3011
1 -26.5806 14.6733 -14.3685
1 -26.3921 14.6375 -8.4868
1 -26.4363 8.33006 -14.355
1 -26.3451 20.2491 -8.66972
2 -29.0509 11.5752 -17.6002
2 -29.3526 17.6657 -17.5093
2 -28.7518 11.742 -11.752
2 -29.2311 17.4283 -11.7316
3 -29.3571 14.5292 -17.4765
3 -26.1292 12.1232 -17.7125
3 -23.1597 14.4417 -6.33742
3 -26.1308 17.1588 -5.99186
3 -29.3816 14.4741 -11.7839
3 -25.9756 12.4426 -11.7128
3 -22.7294 14.6304 -11.62
3 -26.1856 17.3031 -11.8653
3 -29.553 17.3938 -14.6534
3 -23.4179 17.2276 -14.63
3 -23.5355 11.0363 -8.85282
3 -29.1074 11.5499 -8.87467
1 -26.3937 14.5639 -3.07848
1 -26.7304 14.6252 3.13466
1 -26.4762 8.73774 -2.78991
1 -26.2619 20.2316 2.96273
2 -29.2989 11.7373 -5.87343
2 -29.1174 17.3999 -5.81539
2 -29.3711 11.6391 0.231122
2 -29.0916 17.6803 0.0855128
3 -29.1985 14.6202 -5.83887
3 -26.2633 11.9869 -5.85136
3 -23.5013 14.3167 5.52886
3 -26.4234 17.5874 5.67293
3 -28.8146 14.6752 0.283823
3 -26.1696 11.8859 0.471575
3 -23.4226 14.504 0.800101
3 -26.2587 17.6067 0.296218
3 -28.8282 17.4202 -2.84147
3 -23.3666 16.8027 -2.80248
3 -22.7204 11.515 2.95455
3 -29.6721 11.818 3.17016
1 -26.2921 14.5208 8.88953
1 -26.3396 14.5002 14.7115
1 -26.547 8.61025 8.82821
1 -26.0083 20.1927 14.7395
2 -29.3866 11.8236 6.04124
2 -29.4136 17.5329 6.02895
2 -29.4148 11.6648 11.8592
2 -29.1138 17.3545 11.708
3 -28.9517 14.8064 6.29278
3 -26.3966 11.4502 5.61837
3 -22.7208 14.8147 17.3916
3 -26.248 16.8422 17.4939
3 -29.2888 14.5514 11.9788
3 -26.4427 11.6812 11.9214
3 -22.9385 14.7813 11.7655
3 -26.0288 16.8506 11.7269
3 -28.9121 17.6958 8.87727
3 -23.7928 17.3011 8.75416
3 -23.369 11.8273 14.5931
3 -28.9227 11.9397 14.7032
1 -26.4995 14.6618 20.4274
1 -26.5723 14.6421 26.3608
1 -26.0474 8.31235 20.493
1 -26.5212 20.3889 26.3901
2 -28.9486 11.5377 17.6404
2 -29.318 17.5196 17.548
2 -29.0629 11.4879 23.4831
2 -29.4804 17.3168 23.4056
3 -29.1161 14.4283 17.6705
3 -26.1761 11.96 17.3633
3 -23.7719 14.6161 29.0144
3 -26.4932 17.7736 29.1013
3 -29.1461 14.4932 23.6189
3 -26.2161 11.9406 23.6169
3 -23.0007 14.5734 23.666
3 -26.5204 17.3031 23.7853
3 -29.3609 17.2672 20.3795
3 -24.1167 17.67 20.6384
3 -23.1647 11.4157 26.2687
3 -28.8134 11.5003 26.6211
4 -26.4112 14.9474 31.7702
4 -24.736 8.9992 32.8011
2 -29.6294 11.5773 29.557
2 -29.4654 17.5541 29.1168
3 -29.1758 14.6108 29.291
3 -26.3759 11.189 29.9963
3 -29.3429 18.006 32.2563
3 -23.898 17.8942 32.2913
4 -21.1158 20.4449 -31.9453
4 -20.2779 26.2178 -31.8691
3 -17.3016 20.215 -29.387
3 -20.5605 23.0786 -29.5127
3 -17.1828 16.9782 -32.4299
3 -24.0507 17.4141 -32.4877
1 -20.2322 20.4122 -26.4911
1 -20.9803 20.4141 -20.7515
1 -20.605 14.349 -26.2262
1 -20.223 25.8147 -20.8515
2 -23.3483 17.299 -29.5281
2 -23.5259 23.1162 -29.4256
2 -23.3641 17.4567 -23.299
2 -23.3462 23.2938 -23.3292
3 -23.7795 20.2714 -29.2133
3 -20.4656 17.509 -30.0223
3 -16.9257 20.1596 -17.7513
3 -20.3165 22.3614 -17.7666
3 -23.6217 20.3241 -23.3864
3 -20.5335 17.9915 -23.3418
3 -17.043 20.2885 -23.2799
3 -20.3102 22.9275 -23.4168
3 -23.0801 23.1569 -26.223
3 -17.3673 23.4765 -26.6996
3 -17.4301 17.1022 -20.5208
3 -24.1345 17.7094 -20.3944
1 -20.8711 20.0459 -14.747
1 -19.9638 20.1042 -8.89092
1 -20.506 14.7264 -14.4443
1 -20.2712 26.1603 -8.52793
2 -23.6164 17.4093 -17.4781
2 -23.1874 23.2315 -17.5173
2 -23.2247 17.4816 -11.6757
2 -23.2473 23.2351 -11.5943
3 -23.9735 20.4723 -17.3593
3 -20.8182 17.8673 -17.8027
3 -17.4163 20.3313 -6.18165
3 -20.2496 22.8778 -6.46723
3 -23.4528 20.261 -12.0545
3 -20.336 17.8423 -11.8826
3 -16.9275 20.3411 -11.5105
3 -20.2487 23.0477 -10.9378
3 -23.2154 23.0532 -14.5299
3 -18.3105 22.8991 -14.4035
3 -17.3375 17.1766 -8.72584
3 -23.346 17.8203 -8.6806
1 -20.2698 20.2752 -2.72287
1 -20.3918 20.3548 2.67115
1 -20.4946 14.1184 -3.18038
1 -20.101 26.1201 2.70443
2 -23.3315 17.3414 -5.63799
2 -23.2659 23.0571 -5.889
2 -23.3828 17.4705 0.0648259
2 -23.1039 23.1747 -0.0539849
3 -23.033 20.2592 -5.31886
3 -20.2764 17.2383 -6.23591
3 -17.4148 20.4951 5.18419
3 -20.6807 23.3192 5.59303
3 -23.5041 20.3435 -0.617448
3 -20.2778 17.5517 0.00305778
3 -17.1447 20.3122 0.404492
3 -20.2418 23.2204 0.151408
3 -22.873 23.4692 -2.84122
3 -17.8562 22.8798 -2.92931
3 -17.3834 17.1446 2.90923
3 -23.029 17.947 2.94681
1 -20.5171 20.5432 8.65628
1 -20.0465 20.6049 14.674
1 -20.8241 14.633 8.75237
1 -20.2623 26.2051 14.4205
2 -23.4285 17.2951 5.7573
2 -23.5038 23.0859 5.7171
2 -23.2933 17.7326 11.9181
2 -23.1354 23.4214 11.6763
3 -23.3245 20.2047 6.35215
3 -20.5014 17.6923 6.06061
3 -16.5815 20.6027 17.5271
3 -20.1594 22.7778 17.3309
3 -23.815 20.4544 11.2892
3 -20.3662 18.2054 11.7408
3 -16.9041 20.7557 12.193
3 -20.2392 22.8611 11.8963
3 -23.2684 23.6027 8.63136
3 -17.8591 23.3949 8.82265
3 -17.5416 17.8578 14.6495
3 -23.2588 17.9162 14.7985
1 -20.6985 20.6803 20.737
1 -20.5732 20.4858 26.3869
1 -20.5556 14.278 20.5967
1 -20.2343 26.5374 26.4038
2 -23.4495 17.641 17.8022
2 -23.3107 23.4521 17.6799
2 -23.6358 17.5269 23.3537
2 -23.4758 23.4707 23.3945
3 -24.0473 20.5433 17.7481
3 -20.5386 18.2423 17.8256
3 -17.8978 20.3449 29.1918
3 -20.4335 23.252 29.1198
3 -23.8291 20.5369 23.3161
3 -20.6623 17.6874 22.962
3 -17.2564 20.5415 23.4552
3 -20.548 23.6784 23.9918
3 -22.7794 23.6463 20.5264
3 -18.3288 23.5597 20.466
3 -17.8604 17.531 26.1571
3 -23.5452 17.637 26.2288
4 -20.8501 20.3535 31.8284
4 -20.0405 14.5429 31.8379
2 -23.5704 17.5742 29.2738
2 -23.4167 23.5453 29.4504
3 -23.514 20.563 29.0642
3 -20.6085 17.3572 29.1568
3 -23.5964 23.5128 32.3134
3 -17.8292 23.8284 32.4366
4 -14.6315 26.4622 -31.8191
4 -14.4058 32.0391 -31.4847
3 -11.6418 26.2954 -29.2125
3 -14.5644 29.0255 -29.1416
3 -11.8793 23.5832 -32.6509
3 -17.1581 23.2841 -32.6987
1 -14.3212 26.0185 -26.3084
1 -14.5423 25.8608 -20.1771
1 -15.0045 20.3414 -26.666
4 -14.3325 30.9481 -20.3875
2 -17.5075 23.28 -29.7591
2 -17.4454 29.1917 -29.0615
2 -17.42 23.091 -23.5925
2 -17.4407 28.8961 -23.3343
3 -17.73 26.0729 -29.3531
3 -14.5702 23.293 -29.2116
3 -11.4294 26.0213 -17.2583
3 -14.6664 28.7086 -17.4764
3 -17.9566 25.9585 -23.6127
3 -14.6136 23.5409 -23.8263
3 -11.4318 26.0627 -23.203
3 -14.4782 28.5002 -23.0608
3 -17.4859 29.3819 -26.2141
3 -11.8812 28.978 -26.3666
3 -11.901 23.2257 -20.4646
3 -17.3236 23.2669 -20.3569
1 -14.7847 26.4683 -14.5854
1 -14.3595 26.1292 -9.18933
1 -14.8984 20.325 -14.6219
4 -14.6443 31.693 -8.74741
2 -17.3649 23.1586 -17.3518
2 -17.5422 29.0606 -17.6113
2 -17.3232 23.0168 -11.6217
2 -17.5167 29.2255 -11.8033
3 -17.9013 26.1715 -16.8856
3 -14.5124 23.5142 -16.7306
3 -11.8718 26.3843 -6.09993
3 -14.5807 29.25 -5.90362
3 -17.4466 25.9958 -11.6712
3 -14.4382 23.4994 -12.2879
3 -11.5111 26.0525 -11.945
3 -14.5817 29.1322 -11.4673
3 -17.3867 29.2865 -14.7576
3 -12.1466 29.1028 -14.5715
3 -12.0648 23.3367 -8.90035
3 -16.6836 23.3031 -8.56413
1 -14.9045 26.1936 -2.97704
1 -14.7631 26.1779 3.4074
1 -14.652 20.5645 -2.94641
4 -14.3708 31.6631 2.8487
2 -17.423 23.1618 -5.85543
2 -17.5124 29.1662 -5.82002
2 -17.3815 23.2732 -0.131225
2 -17.5853 29.2767 -0.0497657
3 -17.857 26.0574 -5.68509
3 -14.4879 23.2864 -5.39194
3 -11.7266 26.355 6.07354
3 -14.7408 29.1816 5.69658
3 -17.5774 26.322 0.00249425
3 -14.5791 23.341 -0.402157
3 -11.9546 26.3245 -0.189301
3 -14.7607 29.156 -0.233901
3 -17.7547 28.915 -2.9475
3 -11.5215 28.9971 -2.92016
3 -12.3908 23.6971 2.97585
3 -17.229 23.5551 2.84941
1 -14.7383 26.6189 8.548
1 -14.2914 26.3808 14.3913
1 -14.3409 20.6484 8.90635
4 -14.9044 31.2406 14.7096
2 -17.73 23.225 5.8714
2 -17.5647 29.2327 5.79149
2 -17.2899 23.5674 11.7321
2 -17.8171 29.4583 11.7456
3 -17.6187 26.293 5.88476
3 -14.6585 23.5678 6.36545
3 -10.9732 26.3295 17.9571
3 -14.8912 28.9789 17.5136
3 -18.2198 26.3912 11.349
3 -14.5535 24.0084 11.1934
3 -11.4889 26.4255 11.7532
3 -14.8595 28.7301 11.7943
3 -17.4382 29.3896 8.839
3 -12.1902 29.3169 8.56563
3 -11.8806 23.5628 14.7794
3 -16.9652 23.9034 14.7437
1 -14.7958 26.8944 20.6083
1 -14.7767 26.0891 26.2666
1 -14.2778 20.4899 20.474
4 -14.5213 31.4956 26.2624
2 -17.3652 23.5101 17.6765
2 -17.6672 29.3076 17.7577
2 -17.7797 23.489 23.4029
2 -17.6154 29.2881 23.6995
3 -18.3998 26.3716 17.8427
3 -14.4997 24.1223 18.2264
3 -11.7787 26.3505 29.2317
3 -14.4693 29.2766 29.3507
3 -17.7048 26.5575 23.4287
3 -14.7374 23.6415 22.606
3 -11.5904 26.3228 23.4866
3 -14.6906 28.9893 23.7995
3 -17.6153 29.3525 20.644
3 -12.2846 29.368 20.7145
3 -12.3123 23.3908 26.1654
3 -17.1506 23.2137 26.5591
4 -14.2332 26.3642 31.8962
4 -14.9351 20.1194 31.7566
2 -17.5141 23.2146 29.582
2 -17.3437 28.9519 29.534
3 -17.5135 26.1517 28.8503
3 -14.5814 23.3351 29.4662
3 -17.325 28.8591 32.5982
3 -11.4894 29.2361 32.3486
4 -8.80871 31.869 -31.3841
3 -5.94102 32.3539 -28.9037
3 -5.91251 29.8189 -32.2872
3 -11.7846 29.8377 -32.0422
4 -8.83365 31.5673 -26.0949
4 -8.8775 31.4428 -20.6802
1 -9.07724 25.7589 -26.2538
2 -11.678 29.3085 -29.2396
2 -11.6471 28.9672 -23.2917
3 -11.6846 32.2926 -28.7828
3 -8.69086 29.1467 -28.9618
3 -6.03289 32.0841 -17.3302
3 -11.5887 32.0473 -23.5366
3 -8.81176 29.0129 -23.4001
3 -6.14926 31.9343 -23.5298
3 -5.9427 28.834 -20.2224
3 -11.5258 28.8098 -20.3236
4 -8.70526 31.8168 -14.6599
4 -9.00578 31.4079 -8.74235
1 -8.76578 25.8175 -14.6345
2 -11.9244 29.28 -17.4927
2 -11.6013 29.0522 -11.7722
3 -11.594 32.1429 -17.9796
3 -8.70393 28.8282 -17.2769
3 -6.27468 32.4543 -5.9767
3 -11.7869 32.2556 -11.6682
3 -8.73248 29.0187 -11.8556
3 -6.07225 32.1677 -11.989
3 -5.92603 29.2688 -8.99164
3 -11.8648 28.9897 -8.91728
4 -8.95284 31.6338 -2.87659
4 -8.71513 31.8071 2.74127
1 -8.96345 26.2722 -3.11438
2 -11.8176 29.266 -5.83485
2 -11.9039 29.1405 -0.0605776
3 -11.5619 32.1568 -6.03337
3 -8.63958 28.843 -5.91881
3 -6.01176 32.3949 6.10213
3 -12.0863 32.0695 -0.110841
3 -8.78961 29.2066 0.191455
3 -5.32571 32.0152 0.185712
3 -5.96766 29.2314 3.04441
3 -12.0276 28.8162 2.83618
4 -8.50295 31.9962 8.74807
4 -8.91782 31.6424 14.5653
1 -8.81211 26.433 9.16717
2 -11.8853 29.4088 5.75526
2 -11.8348 29.4778 11.4339
3 -11.896 32.2854 5.71923
3 -9.04944 29.5007 5.72234
3 -6.42142 32.4875 17.6744
3 -12.4579 32.348 11.9067
3 -8.84447 29.6149 11.5237
3 -5.40449 32.2041 11.9362
3 -6.10253 29.1302 14.938
3 -11.5704 29.0281 14.3086
4 -9.18631 31.656 20.5877
4 -8.63832 31.9242 26.3645
1 -8.76282 26.4432 20.8888
2 -12.0318 29.2194 17.649
2 -11.6729 29.524 23.4771
3 -12.2271 32.2617 17.6769
3 -9.09089 29.3747 17.5277
3 -5.95702 32.1986 29.1109
3 -11.833 32.6003 23.467
3 -8.80192 29.4395 23.2874
3 -6.01495 32.0735 23.5242
3 -5.91453 28.8913 26.2647
3 -11.2787 29.4838 26.3577
4 -8.62273 31.6367 31.8666
4 -8.67704 26.0449 31.4127
2 -11.5922 29.2558 29.3262
3 -10.8495 32.4413 29.3272
3 -8.79122 29.0305 29.2433
4 -3.03015 31.2174 -25.9234
4 -3.18098 31.7418 -15.0298
4 -2.80701 31.7286 -3.02534
4 -2.68981 31.636 8.92514
4 -2.84103 31.6758 20.7025
4 -3.11449 31.9803 31.4576
4 -31.4065 -3.3807 -31.8521
4 -31.7081 2.69676 -31.8313
3 -28.8986 -2.95836 -29.1758
3 -32.2111 -0.545007 -29.4339
3 -29.2811 -6.29922 -32.4965
4 -31.4874 -2.92996 -26.3924
4 -31.526 -2.58957 -20.4516
4 -31.2287 -8.30013 -26.4885
4 -31.237 2.98626 -20.277
3 -32.2871 -5.923 -29.1982
3 -28.7577 -2.78708 -17.7524
3 -32.1504 0.375073 -17.2233
3 -31.924 -5.92614 -23.4081
3 -28.6506 -2.81935 -23.8373
3 -31.9411 0.241652 -23.3378
3 -29.2035 0.217001 -26.5483
3 -28.7725 -5.6486 -20.5113
4 -31.3853 -2.75546 -14.9664
4 -31.3279 -2.60529 -9.28097
4 -31.9718 -8.71756 -14.6733
4 -31.6543 2.8998 -8.78146
3 -31.9775 -5.32469 -17.8053
3 -28.5429 -2.94039 -6.04515
3 -31.8373 -0.496379 -6.235
3 -32.1927 -5.44134 -11.8914
3 -28.6155 -2.78688 -11.848
3 -32.2479 0.208211 -12.1391
3 -28.8056 -0.019474 -14.6199
3 -28.9183 -5.53275 -8.96223
4 -31.6268 -2.88358 -3.25418
4 -31.8386 -2.74531 3.22378
4 -31.8934 -8.97255 -3.03801
4 -31.8219 2.44477 2.99747
3 -31.9693 -5.24072 -6.27262
3 -29.4628 -2.95688 5.90951
3 -32.4383 0.0626291 5.79854
3 -32.5535 -6.23068 -0.0303993
3 -29.253 -3.04216 0.0586583
3 -32.1959 -0.19716 -0.126665
3 -28.9528 -0.333556 -2.97183
3 -29.5102 -5.74368 3.06274
4 -31.4756 -2.83242 9.15472
4 -31.2623 -2.77112 15.001
4 -31.4352 -8.84756 8.83633
4 -31.6011 3.16041 14.9326
3 -32.1122 -6.09597 6.28697
3 -28.3734 -2.73906 17.976
3 -31.8135 0.0616538 17.7542
3 -32.5083 -5.33391 12.5208
3 -28.9326 -2.88093 11.5918
3 -32.1125 0.306471 11.4778
3 -28.7487 0.269096 8.80758
3 -28.8848 -5.41898 14.7619
4 -30.8982 -2.80435 20.4931
4 -31.5334 -3.26556 26.2077
4 -31.4793 -8.67923 20.4313
4 -32.1741 1.92944 26.6025
3 -31.9598 -5.35481 17.927
3 -29.1307 -2.94257 29.1296
3 -32.4597 -1.0003 28.7979
3 -32.2948 -5.63778 23.3721
3 -28.6635 -3.00491 23.4927
3 -32.5295 -0.596215 23.6841
3 -28.9678 0.360634 20.7093
3 -28.9557 -6.03658 26.4974
4 -31.6073 -3.14512 31.9701
4 -31.0079 -8.80849 31.929
3 -32.0358 -6.21038 29.7446
3 -29.2834 0.297543 32.4128
4 -25.9985 2.49085 -31.6477
4 -26.2883 8.37711 -31.2271
3 -23.3876 2.78914 -29.1003
3 -26.3128 5.58327 -29.2445
3 -23.6884 -0.210849 -32.3643
3 -29.1293 -0.412347 -32.5906
1 -26.1333 3.017 -26.6673
1 -25.9392 3.07552 -20.6701
1 -26.043 -2.81825 -26.8109
1 -26.2522 8.74519 -20.4049
2 -29.2646 -0.185975 -29.4927
2 -29.2995 5.7817 -29.2803
2 -29.027 0.157426 -23.7056
2 -28.9677 5.97954 -23.4604
3 -28.9428 2.86633 -29.4302
3 -26.3703 -0.206036 -29.3485
3 -22.7616 2.91687 -18.0063
3 -26.1776 5.60922 -17.7077
3 -29.1414 3.08424 -23.3308
3 -26.039 0.646372 -23.7026
3 -22.4607 2.84745 -23.7914
3 -26.0607 5.35877 -23.5769
3 -28.8469 5.64772 -26.4114
3 -23.0321 5.69564 -26.5373
3 -23.3035 -0.176664 -20.778
3 -28.712 -0.261845 -20.6805
1 -26.7433 3.09741 -14.3928
1 -26.4578 2.79201 -8.70271
1 -26.2316 -3.25829 -14.5942
1 -26.3232 8.79482 -8.68233
2 -29.0389 0.0368894 -17.6975
2 -29.1468 5.83953 -17.6295
2 -29.219 0.0745319 -11.7023
2 -29.4934 5.99374 -11.6267
3 -29.0814 2.98085 -17.5204
3 -26.1878 0.315735 -17.6051
3 -22.8888 3.07579 -6.34872
3 -26.3037 5.6413 -5.60641
3 -29.0778 2.97618 -11.8838
3 -26.1236 0.441711 -11.7191
3 -22.7333 2.93069 -11.305
3 -26.3286 5.81977 -11.8953
3 -29.3257 5.78425 -14.6002
3 -23.5783 5.59828 -14.7622
3 -23.4091 -0.248261 -8.79551
3 -28.9756 0.19765 -8.82675
1 -26.3211 2.99353 -2.50862
1 -26.501 2.80616 3.16432
1 -26.481 -3.19157 -2.48981
1 -26.3992 8.75731 2.79888
2 -29.088 0.176312 -5.79664
2 -29.2204 5.88371 -5.78706
2 -29.2004 -0.110722 0.0110466
2 -29.4675 5.62107 0.236702
3 -29.5703 3.06589 -5.68565
3 -26.3477 0.697673 -5.68763
3 -23.4756 2.76317 5.27098
3 -26.3357 5.58385 6.11114
3 -29.2689 2.78055 0.247304
3 -26.1744 0.293569 0.132052
3 -22.9238 2.96186 0.376222
3 -26.5059 5.49654 0.11349
3 -29.1235 5.72192 -2.75937
3 -23.2235 5.5189 -2.69605
3 -22.8431 -0.380075 3.03796
3 -29.1676 -0.243977 3.17074
1 -26.2477 2.8112 8.78429
1 -25.7835 3.11076 14.6382
1 -26.525 -2.64476 8.77296
1 -26.2469 8.86618 14.4815
2 -29.4853 0.00128406 6.12585
2 -29.4148 5.86917 5.79648
2 -29.0795 -0.0421863 11.9016
2 -29.1095 5.78931 11.7675
3 -29.3165 2.91564 5.55607
3 -26.3197 -0.355057 5.67668
3 -22.6233 3.02869 17.4032
3 -26.1262 5.62376 17.5162
3 -28.8768 2.84169 11.4906
3 -26.1876 -0.00470617 11.9123
3 -23.2096 2.96228 12.1959
3 -26.0765 5.75962 11.5555
3 -29.1355 5.75345 8.85278
3 -23.2681 5.07247 8.68021
3 -23.3344 -0.324799 14.8092
3 -28.8433 0.0706969 14.7616
1 -26.2324 3.10348 20.143
1 -26.4647 2.42582 26.7159
1 -26.0968 -2.87173 20.7878
1 -26.2423 8.90667 26.8549
2 -28.8419 0.150198 17.5966
2 -29.0325 5.80641 17.6899
2 -29.0772 -0.0707415 23.618
2 -28.9704 5.73997 23.5833
3 -29.2094 2.90347 17.8169
3 -25.8476 0.558996 17.5862
3 -23.9729 3.00699 29.8196
3 -26.2894 6.78562 30.1812
3 -29.6196 2.92099 24.2553
3 -26.2761 0.267072 23.7154
3 -22.6923 2.71079 24.09
3 -26.2519 4.67671 23.5474
3 -28.8491 5.86124 20.5019
3 -23.463 5.63778 20.5642
3 -23.1597 -0.253373 26.4594
3 -28.9944 -0.254035 26.432
4 -24.0591 3.38687 33.4222
4 -26.1819 -3.31307 31.9029
2 -29.7186 -0.120625 29.2832
2 -29.0517 5.79184 29.4188
3 -29.5887 2.88759 29.1156
3 -26.5417 0.0295432 29.6714
3 -26.0587 5.95057 34.3842
3 -22.1895 6.31222 32.6799
4 -19.9103 8.8429 -32.0615
4 -19.7582 14.2671 -31.9956
3 -17.4148 8.59831 -29.3795
3 -20.5003 11.7038 -29.5135
3 -17.3061 6.02822 -32.4874
3 -23.7695 5.59655 -32.4768
1 -20.1326 8.41807 -26.4834
1 -20.0638 8.74455 -20.658
1 -20.3751 2.92239 -26.7476
1 -20.2785 14.337 -20.3093
2 -23.312 5.70009 -29.3301
2 -23.411 11.4068 -29.5186
2 -23.152 5.93221 -23.5688
2 -23.4021 11.6647 -23.4504
3 -23.0395 8.60431 -29.2055
3 -20.4729 5.66315 -29.7949
3 -17.1483 8.71336 -18.1658
3 -20.5668 11.084 -17.9635
3 -23.3632 8.72794 -24.2771
3 -20.2321 6.30134 -23.5251
3 -17.0743 8.75201 -22.8965
3 -20.2938 11.2468 -23.3402
3 -23.2813 12.1051 -26.3825
3 -17.8118 11.0696 -26.4336
3 -17.3467 5.56763 -20.6847
3 -23.565 6.26773 -20.5871
1 -20.5228 8.8056 -14.4606
1 -20.2169 8.6548 -8.41582
1 -20.5237 3.49761 -14.6948
1 -20.4004 14.6018 -8.82004
2 -23.3027 5.78109 -17.7359
2 -23.3043 11.5211 -17.3929
2 -23.2528 5.85191 -11.7157
2 -23.2743 11.6456 -11.7088
3 -24.0378 8.64584 -17.1014
3 -20.3578 5.99852 -17.7259
3 -17.0723 8.61687 -6.05866
3 -20.4082 11.5689 -5.8646
3 -23.3959 8.86651 -12.2505
3 -20.248 6.15889 -11.9517
3 -17.1579 8.8833 -11.3484
3 -20.3699 11.424 -10.878
3 -22.9858 12.0849 -14.6344
3 -17.6032 11.1799 -14.5334
3 -17.4146 5.5599 -8.86107
3 -23.7248 6.52729 -8.81479
1 -20.6916 8.69038 -2.46991
1 -20.1883 8.94862 3.12659
1 -20.5443 2.91442 -3.02332
1 -20.6354 14.685 3.13545
2 -23.2104 5.85961 -5.78019
2 -23.2951 11.6482 -5.95911
2 -23.4639 5.90817 0.223627
2 -23.3923 11.7355 0.155697
3 -23.3837 8.66879 -5.32699
3 -20.4044 6.20156 -5.50369
3 -17.0312 8.83633 5.17518
3 -20.3506 11.4172 6.39399
3 -23.7912 8.8489 -0.354329
3 -20.5351 6.52156 0.337157
3 -17.5818 8.78473 0.711868
3 -20.6131 11.6392 -0.615667
3 -23.839 11.9774 -2.911
3 -17.462 10.7422 -2.70593
3 -17.2549 4.83645 3.04735
3 -23.5634 6.45344 2.97148
1 -20.434 8.8432 9.12911
1 -20.0985 8.83344 14.5357
1 -20.6552 2.67421 8.57643
1 -20.0818 14.6902 14.6965
2 -23.2284 5.79461 5.72511
2 -23.4298 11.4318 5.83173
2 -23.2687 5.96809 11.6417
2 -23.2899 11.6887 11.7452
3 -23.3651 8.52922 6.8305
3 -20.3694 6.02111 5.33052
3 -17.2366 8.53036 17.3629
3 -20.4643 11.4264 17.7459
3 -23.1633 8.89582 11.6146
3 -20.2933 6.01576 11.6753
3 -17.3663 8.85939 11.5523
3 -20.2537 11.4542 11.8332
3 -23.5995 11.9414 8.71124
3 -16.8281 11.7917 8.73436
3 -17.3391 5.64274 14.5096
3 -23.1242 6.30584 14.7443
1 -20.5315 8.47249 20.7628
1 -20.6568 8.55026 26.2388
1 -20.3729 3.07696 21.0965
1 -20.3576 14.8027 25.9763
2 -23.306 5.78672 17.6494
2 -23.2402 11.8078 17.5489
2 -23.4515 5.71228 23.7511
2 -23.469 11.7689 23.4302
3 -23.3897 8.82666 17.859
3 -20.2288 6.36182 17.6617
3 -17.9024 8.73959 29.0564
3 -20.5577 11.9794 29.0114
3 -23.3224 8.62667 23.6042
3 -20.5408 6.07622 23.486
3 -17.5659 8.76197 23.9595
3 -20.4708 11.6144 23.3919
3 -23.617 11.8698 20.5058
3 -17.5363 10.9096 20.3666
3 -17.5203 5.73746 26.4779
3 -24.229 5.91483 26.7389
4 -20.1846 9.16064 31.9229