7407
 Atoms. Timestep: 1306
3 -28.7508 32.1394 -28.77
3 -28.8211 28.8434 -32.1258
4 -31.3763 31.5701 -26.166
4 -31.1694 31.6794 -20.3954
4 -31.5445 26.0164 -26.3072
3 -32.1399 28.8453 -28.8015
3 -28.7883 32.0677 -17.5065
3 -32.1392 29.4033 -23.2381
3 -28.8464 32.0163 -23.2901
3 -29.0173 28.7457 -20.3549
4 -31.1591 31.9344 -14.5475
4 -31.4814 31.8458 -8.77147
4 -31.772 26.3395 -14.1405
3 -32.2032 29.8074 -17.3657
3 -29.0912 32.3328 -5.85119
3 -32.1937 29.5328 -11.7294
3 -28.9886 32.2973 -11.56
3 -29.1511 29.0961 -8.71929
4 -31.5049 31.9267 -2.92716
4 -31.578 31.8347 2.87102
4 -31.7821 26.3629 -2.82744
3 -32.3111 29.6559 -5.82023
3 -29.0828 32.3554 5.66599
3 -32.2836 29.5287 -0.0594313
3 -29.164 32.3758 -0.00213001
3 -29.1578 29.1698 2.86179
4 -31.2312 32.0101 8.6683
4 -31.0799 31.9073 14.5888
4 -31.8773 26.3731 8.19604
3 -32.2419 29.5576 5.84018
3 -28.7808 32.0815 17.5292
3 -32.3062 30.058 11.5967
3 -28.8266 32.1352 11.6222
3 -29.1663 28.8036 14.5347
4 -31.1643 31.8443 20.4904
4 -31.334 31.5135 26.2736
4 -31.7381 26.1886 20.8071
3 -32.2496 29.9351 17.5389
3 -28.6015 32.0446 28.8256
3 -32.0781 29.3188 23.2684
3 -28.868 32.1163 23.3884
3 -28.8795 28.8881 26.1956
4 -31.3045 26.0962 31.4734
3 -31.9545 28.747 28.8542
4 -26.1962 31.3456 -26.0266
4 -26.2415 31.4595 -14.595
4 -26.3237 31.5788 -2.98913
4 -26.3144 31.4499 8.81571
4 -26.2305 31.3326 20.3082
4 -25.9656 31.3379 31.4569
4 -31.5594 20.471 -31.5043
4 -31.5235 26.2526 -31.5084
3 -28.9531 20.4656 -29.0167
3 -32.1295 23.3448 -29.1159
3 -29.1523 17.6362 -32.1852
4 -31.2939 20.4116 -26.0527
4 -31.2389 20.3758 -20.5412
4 -31.4628 14.8117 -26.2837
4 -31.6986 25.6268 -20.5193
3 -32.0848 17.5475 -29.1186
3 -28.7292 20.527 -17.524
3 -32.1751 22.8243 -17.8807
3 -31.9718 17.8264 -23.464
3 -28.5517 20.4064 -23.3396
3 -31.9918 22.9815 -23.3192
3 -28.9635 23.2938 -26.2343
3 -28.937 17.5078 -20.4321
4 -31.5135 20.3015 -14.8944
4 -31.5923 20.7818 -8.6412
4 -31.5193 14.824 -14.6728
4 -31.6309 26.1869 -8.71456
3 -32.0255 17.6397 -17.6163
3 -28.944 20.6608 -5.89635
3 -32.2728 23.4497 -5.9626
3 -32.2689 17.6761 -12.2503
3 -29.1833 20.5634 -11.6439
3 -32.3136 23.6443 -11.3666
3 -29.4455 23.3712 -14.5587
3 -29.5406 17.6877 -8.7969
4 -31.5545 20.6291 -3.01101
4 -31.6657 20.8672 2.74282
4 -31.6722 15.1656 -2.97187
4 -31.6391 26.2977 2.79086
3 -32.2476 18.0364 -5.62114
3 -29.2255 20.6284 5.73127
3 -32.3594 23.7195 5.41873
3 -32.2968 18.0427 -0.40637
3 -29.0387 20.6798 -0.00107693
3 -32.2898 23.6353 0.0663636
3 -29.3547 23.5558 -2.9367
3 -29.6807 17.7273 2.8806
4 -31.5602 20.3782 8.94583
4 -31.4162 20.4157 14.548
4 -31.5995 14.9329 8.81409
4 -32.0262 25.4698 14.5672
3 -32.3238 17.7615 6.34579
3 -28.7555 20.5431 17.3807
3 -32.2383 22.8319 17.323
3 -32.1014 17.739 11.631
3 -28.8237 20.6055 11.6392
3 -32.3162 22.8301 11.8537
3 -29.5157 23.471 8.6523
3 -29.1221 17.5797 14.5018
4 -31.3965 20.3762 20.1745
4 -31.4491 20.5365 25.9334
4 -31.5693 14.974 20.1673
4 -31.3803 26.0203 26.2614
3 -32.0575 17.7657 17.5132
3 -28.9237 20.3066 28.7908
3 -32.0004 23.2234 29.027
3 -32.1405 17.9087 22.9253
3 -28.8389 20.449 23.2372
3 -32.1352 23.4304 23.5208
3 -29.248 23.386 20.3585
3 -29.4049 17.4254 26.104
4 -31.373 20.275 31.4403
4 -31.2461 14.4241 31.5304
3 -32.0953 17.2833 29.3103
3 -29.0346 23.1192 32.0714
4 -26.1454 26.1629 -31.5239
4 -26.2102 31.5162 -31.4934
3 -23.3298 26.2431 -29.0906
3 -26.2364 28.9656 -28.9516
3 -23.3887 23.3521 -32.1642
3 -29.1324 23.3296 -32.1466
1 -26.1511 26.2109 -26.3048
1 -26.011 26.2006 -20.3789
1 -26.1865 20.4607 -26.3977
4 -26.2281 31.2833 -20.3875
2 -29.1545 23.3515 -29.1614
2 -29.197 29.1991 -29.1583
2 -29.009 23.286 -23.2982
2 -29.1678 29.0361 -23.2646
3 -28.9487 26.227 -29.0044
3 -26.2352 23.334 -29.0749
3 -22.9223 26.3222 -17.6041
3 -26.3217 28.6912 -17.4451
3 -29.4344 26.1564 -23.3386
3 -26.1679 23.9371 -23.4232
3 -22.8536 26.1847 -23.2304
3 -26.2217 28.7122 -23.2595
3 -28.9871 28.8719 -26.183
3 -23.3408 28.938 -26.2061
3 -23.6339 23.2441 -20.3508
3 -28.7467 23.2993 -20.3837
1 -26.2013 26.4099 -14.3022
1 -26.2749 26.3284 -8.71611
1 -26.5692 20.6712 -14.4274
4 -26.3439 31.6432 -8.66909
2 -29.2566 23.4243 -17.483
2 -29.2765 29.0789 -17.4513
2 -29.3613 23.4641 -11.6383
2 -29.2439 29.3049 -11.6225
3 -29.9627 26.256 -17.3559
3 -26.3807 24.09 -17.1966
3 -23.2252 26.4049 -6.15533
3 -26.4191 29.033 -5.84697
3 -29.1741 26.3806 -11.5406
3 -26.438 23.5814 -11.9214
3 -23.4283 26.373 -11.3814
3 -26.3405 29.1477 -11.5838
3 -29.0433 28.9952 -14.5259
3 -23.4406 29.0032 -14.5287
3 -23.9727 23.2436 -8.71187
3 -28.9386 23.4968 -8.73942
1 -26.4365 26.5078 -2.88709
1 -26.3395 26.3469 2.84056
1 -26.6395 20.907 -2.90904
4 -26.3885 31.7364 2.82577
2 -29.3058 23.5544 -5.84819
2 -29.3415 29.3549 -5.82758
2 -29.3231 23.5746 -0.0341554
2 -29.3022 29.3978 -0.0290873
3 -29.4866 26.4558 -5.75553
3 -26.4158 23.9444 -5.55028
3 -23.3863 26.4747 5.42226
3 -26.3683 29.1981 5.72315
3 -29.3123 26.4859 -0.0517332
3 -26.4162 23.8667 -0.299467
3 -23.2743 26.4912 0.364727
3 -26.3831 29.155 0.010092
3 -29.1677 29.1893 -2.92497
3 -23.5766 29.0121 -2.91889
3 -23.9843 23.2888 2.86125
3 -28.9842 23.5384 2.84979
1 -26.3358 26.46 8.42676
1 -26.1241 26.2164 14.499
1 -26.685 20.824 8.54851
4 -26.4156 31.3785 14.5343
2 -29.4103 23.5291 5.73529
2 -29.2785 29.3708 5.7657
2 -29.3962 23.502 11.5889
2 -29.4482 29.1354 11.6192
3 -29.2254 26.4468 5.6546
3 -26.4793 23.6845 6.01012
3 -23.1506 26.2415 17.136
3 -26.4284 28.698 17.4429
3 -30.2024 26.3231 11.4951
3 -26.5169 24.105 11.2701
3 -23.1644 26.2945 11.8963
3 -26.4927 28.7315 11.5937
3 -29.1645 29.0369 8.67625
3 -23.5477 28.9497 8.69353
3 -23.9499 23.1123 14.4574
3 -28.9135 23.4302 14.5
1 -26.2291 26.2797 20.4888
1 -26.1024 26.1061 26.0522
1 -26.4489 20.7236 20.3584
4 -26.0714 31.4249 26.0082
2 -29.303 23.4285 17.4137
2 -29.377 29.0908 17.456
2 -29.1727 23.3342 23.2631
2 -29.1143 29.1482 23.3057
3 -30.0228 26.2547 17.5452
3 -26.4149 23.9564 17.6487
3 -23.1947 26.1294 28.7433
3 -26.0324 28.8757 28.8243
3 -29.0917 26.2318 23.3547
3 -26.2461 23.5782 23.056
3 -23.0711 26.252 23.3866
3 -26.1967 28.8747 23.252
3 -29.0585 28.8971 20.3906
3 -23.4394 28.8511 20.3048
3 -23.5837 23.1685 26.0815
3 -28.8306 23.2533 26.1539
4 -25.8626 26.0652 31.3722
4 -26.0819 20.176 31.3382
2 -29.0281 23.2089 29.0854
2 -28.9911 29.0863 29.1654
3 -28.7588 26.1083 28.9294
3 -26.1311 23.1512 29.0865
3 -28.5587 28.6654 32.101
3 -23.0979 28.8826 31.9942
4 -20.4917 31.447 -31.608
3 -17.714 32.1716 -29.198
3 -17.5498 29.094 -32.0971
3 -23.3602 29.0731 -32.1368
4 -20.5748 31.5406 -26.2715
4 -20.0991 31.5574 -20.3921
1 -20.5516 26.147 -26.3084
2 -23.3651 29.1611 -29.1384
2 -23.3173 29.1104 -23.2809
3 -23.2785 32.1247 -29.1346
3 -20.4851 28.9546 -28.9983
3 -17.2164 32.0766 -17.7861
3 -23.6249 32.0838 -23.402
3 -20.4426 29.3859 -23.3189
3 -17.2241 31.9761 -23.1164
3 -17.583 28.6933 -20.37
3 -23.2522 29.0716 -20.3762
4 -20.6142 31.6623 -14.2776
4 -20.3855 31.6013 -8.79159
1 -20.6396 26.4657 -14.4584
2 -23.4185 29.233 -17.4602
2 -23.4536 29.3252 -11.6208
3 -23.9008 32.1635 -17.4562
3 -20.5358 29.5728 -17.326
3 -17.6901 32.2473 -6.15246
3 -23.5566 32.278 -11.8503
3 -20.5788 29.1307 -11.5927
3 -17.766 32.1805 -11.4943
3 -17.6867 28.8528 -8.74794
3 -23.4417 29.3916 -8.73235
4 -20.8617 31.7525 -3.02487
4 -20.0811 31.6949 2.90118
1 -20.687 26.6482 -2.96901
2 -23.5205 29.3189 -5.83459
2 -23.4821 29.4316 0.000199066
3 -23.7586 32.2827 -5.69088
3 -20.6314 29.3686 -5.82195
3 -17.3313 32.1747 5.55582
3 -23.7591 32.3837 -0.374921
3 -20.5967 29.5082 -0.0917865
3 -17.3448 32.197 0.232256
3 -17.6696 28.8194 2.88605
3 -23.324 29.7058 2.89183
4 -20.842 31.693 8.85695
4 -20.5488 31.5519 14.5389
1 -20.6829 26.5436 8.76737
2 -23.4705 29.4372 5.77998
2 -23.5865 29.1852 11.611
3 -23.6929 32.3701 6.27795
3 -20.5919 29.4594 5.8696
3 -17.8335 32.208 17.1923
3 -23.8097 32.1369 11.5938
3 -20.6778 29.2689 11.618
3 -17.8589 32.236 11.8868
3 -17.7229 28.866 14.5115
3 -23.5133 29.179 14.5147
4 -20.7618 31.6069 20.1488
4 -20.0823 31.4201 26.2275
1 -20.6179 26.3564 20.1891
2 -23.5257 29.1414 17.403
2 -23.3136 29.2039 23.2051
3 -23.7141 32.0909 17.5445
3 -20.6141 29.1706 17.3993
3 -17.3638 31.9975 28.9027
3 -23.6558 32.1517 22.9901
3 -20.4474 29.402 23.1436
3 -17.2807 32.0863 23.5722
3 -17.4339 28.7012 26.1506
3 -23.1074 29.1722 26.1077
4 -20.2135 31.3768 31.417
4 -20.474 25.8366 31.3573
2 -23.1437 29.0542 29.0161
3 -23.063 32.0388 29.1134
3 -20.2518 28.7694 28.9151
4 -14.6235 31.3039 -25.8601
4 -14.6304 31.3795 -14.8
4 -14.7065 31.4524 -2.75417
4 -14.7163 31.432 8.47156
4 -14.5857 31.3857 20.4948
4 -14.3638 31.5746 31.2229
4 -31.4621 8.93875 -31.4154
4 -31.4374 14.7118 -31.5799
3 -28.8846 8.96005 -28.8961
3 -32.0875 11.9169 -29.1753
3 -29.0138 6.14888 -32.0879
4 -31.2013 8.86269 -25.888
4 -31.1633 8.92342 -20.3296
4 -31.2935 3.31099 -26.1349
4 -31.4493 14.5346 -20.2502
3 -31.9626 6.00179 -29.0391
3 -28.5993 8.98139 -17.4921
3 -31.9619 11.6638 -17.6682
3 -31.8361 6.15564 -23.3988
3 -28.4388 8.92099 -23.2594
3 -31.922 11.3953 -23.1357
3 -29.0277 11.8689 -26.1966
3 -28.8772 5.99961 -20.35
4 -31.2527 8.91228 -14.5735
4 -31.2727 9.04799 -8.78364
4 -31.2956 3.47201 -14.5302
4 -31.5494 14.396 -8.84689
3 -31.8507 6.26123 -17.3116
3 -28.6753 9.09758 -5.88909
3 -32.076 11.6716 -6.15521
3 -31.8986 6.27727 -11.9118
3 -28.6347 9.02238 -11.6235
3 -32.0054 11.6288 -11.5471
3 -29.0876 11.8989 -14.5779
3 -29.066 6.08665 -8.7452
4 -31.3069 8.99341 -2.91954
4 -31.2866 9.0373 2.86021
4 -31.349 3.58311 -2.90824
4 -31.5924 14.3859 2.91369
3 -31.9225 6.36942 -5.59868
3 -28.6622 9.07629 5.71523
3 -32.0497 11.6074 5.58
3 -31.9087 6.36043 -0.222935
3 -28.6749 9.11704 -0.00653685
3 -32.0815 11.6516 0.213863
3 -29.2588 12.0698 -2.95393
3 -29.0144 6.13084 2.85587
4 -31.3214 8.97689 8.54166
4 -31.3907 9.15481 14.3728
4 -31.3815 3.5496 8.56907
4 -31.4976 14.6206 14.465
3 -31.9205 6.3129 5.88516
3 -28.8409 8.97699 17.3505
3 -32.1082 11.8198 17.1287
3 -32.002 6.38884 11.2024
3 -28.7321 9.04647 11.6019
3 -32.0753 11.8674 11.7501
3 -29.1811 11.9761 8.67232
3 -29.3234 6.07854 14.4685
4 -31.3032 8.80291 20.38
4 -31.2782 8.78618 25.9342
4 -31.3395 3.28652 20.2914
4 -31.4586 14.2718 26.1789
3 -32.0141 6.1096 17.8309
3 -28.829 8.72198 28.7874
3 -31.9684 11.6171 28.9888
3 -31.901 6.12287 23.1185
3 -28.6517 8.9109 23.194
3 -32.0549 11.4905 23.4974
3 -29.2181 11.8678 20.2858
3 -28.981 5.88714 26.0596
4 -31.4383 8.62501 31.2813
4 -31.2817 2.8766 31.3248
3 -31.9695 5.72252 28.9656
3 -29.0906 11.4283 32.0468
4 -26.071 14.6414 -31.5534
4 -26.095 20.5089 -31.5576
3 -23.2787 14.7328 -29.1002
3 -26.2072 17.599 -29.2105
3 -23.4523 11.7999 -32.1558
3 -29.039 11.7984 -32.1067
1 -26.0771 14.7513 -26.3275
1 -26.1138 14.5993 -20.2905
1 -26.0725 9.01464 -26.2983
1 -26.1472 20.2812 -20.3166
2 -29.1098 11.8351 -29.114
2 -29.1169 17.5869 -29.1888
2 -28.9583 11.7965 -23.2664
2 -28.9881 17.5115 -23.3322
3 -28.8848 14.7142 -29.0325
3 -26.1812 11.8453 -28.991
3 -22.7741 14.8776 -17.7345
3 -26.1525 17.2772 -17.6961
3 -29.3887 14.6548 -23.2883
3 -26.0779 12.399 -23.4764
3 -22.5885 14.7416 -23.236
3 -26.092 16.9483 -23.2087
3 -28.838 17.5688 -26.2584
3 -23.4263 17.5308 -26.2409
3 -23.4963 11.8196 -20.3697
3 -28.6633 11.7935 -20.3702
1 -26.3798 14.8745 -14.5827
1 -26.12 14.6762 -8.81345
1 -26.2735 9.2819 -14.5567
1 -26.4237 20.397 -8.81524
2 -29.0133 11.8473 -17.482
2 -29.0677 17.6254 -17.5258
2 -29.0592 11.8878 -11.6619
2 -29.3436 17.6574 -11.6988
3 -29.0937 14.7333 -17.442
3 -26.0873 12.2368 -17.2161
3 -22.9186 14.9407 -6.21561
3 -26.3755 17.3984 -6.24563
3 -29.2271 14.7731 -11.7256
3 -26.144 12.3016 -11.9386
3 -22.9473 14.8843 -11.2814
3 -26.367 17.4902 -11.3645
3 -28.8677 17.6876 -14.6064
3 -23.6773 17.4746 -14.5231
3 -23.6728 11.7542 -8.74278
3 -28.692 11.8916 -8.76849
1 -26.6262 14.9862 -2.95616
1 -26.1159 14.6974 2.89633
1 -26.3901 9.48982 -2.94281
1 -26.4524 20.4657 2.90041
2 -29.1435 11.9702 -5.87822
2 -29.2978 17.757 -5.88948
2 -29.1508 11.9883 -0.0279299
2 -29.3548 17.7741 -0.0176813
3 -29.3884 14.8617 -5.84609
3 -26.222 12.4226 -5.57927
3 -22.9798 14.9334 5.3819
3 -26.4276 17.5223 5.40231
3 -29.4038 14.8786 -0.0715547
3 -26.2308 12.4385 -0.319097
3 -22.9648 14.9582 0.36201
3 -26.4199 17.4737 0.373881
3 -28.9467 17.8825 -2.95252
3 -23.8676 17.4577 -2.92463
3 -23.6941 11.761 2.87192
3 -28.7114 11.9267 2.86238
1 -26.5033 14.9128 8.70088
1 -26.1937 14.6045 14.4643
1 -26.3783 9.37378 8.67685
1 -26.2985 20.2207 14.4732
2 -29.1132 11.9432 5.7522
2 -29.3974 17.7145 5.77759
2 -29.1199 11.9179 11.582
2 -29.1377 17.6952 11.6012
3 -29.3292 14.826 5.8394
3 -26.1992 12.3696 6.04683
3 -22.8777 14.811 17.0642
3 -26.193 17.2689 17.0982
3 -29.1802 14.804 11.5756
3 -26.1866 12.2928 11.3163
3 -22.8507 14.9058 11.936
3 -26.2276 17.3082 11.8839
3 -28.8967 17.7768 8.6892
3 -23.7747 17.4395 8.64629
3 -23.6851 11.7194 14.4782
3 -28.7575 11.8593 14.475
1 -26.3932 14.7819 20.2325
1 -26.0241 14.4771 26.0828
1 -26.3779 9.24357 20.2168
1 -26.1202 20.3243 26.046
2 -29.1606 11.8594 17.3597
2 -29.0982 17.6406 17.3914
2 -29.1064 11.7923 23.1991
2 -29.1915 17.5541 23.2025
3 -29.169 14.7488 17.4012
3 -26.2125 12.1496 17.6316
3 -23.2061 14.5782 28.6493
3 -26.1912 17.4384 28.6897
3 -29.3702 14.672 23.1387
3 -26.1873 12.2463 22.9715
3 -22.8299 14.7031 23.5278
3 -26.2646 17.1997 23.5063
3 -28.7968 17.6763 20.3001
3 -23.6661 17.3476 20.2609
3 -23.5381 11.4661 26.1192
3 -28.7366 11.661 26.1082
4 -25.897 14.6839 31.2933
4 -26.1068 8.57204 31.4109
2 -28.9913 11.607 29.0484
2 -29.121 17.4026 28.9951
3 -28.8082 14.5082 28.8654
3 -26.0991 11.6194 29.1714
3 -28.8645 17.4145 31.9772
3 -23.3769 17.444 31.9249
4 -20.5114 20.4192 -31.536
4 -20.4374 26.1578 -31.5194
3 -17.5876 20.4992 -29.1924
3 -20.48 23.3335 -29.0876
3 -17.6862 17.5351 -32.1427
3 -23.2897 17.676 -32.1667
1 -20.4485 20.5426 -26.4076
1 -20.0374 20.3707 -20.3786
1 -20.5138 14.7633 -26.3993
1 -20.4181 26.1039 -20.3703
2 -23.3234 17.6092 -29.1937
2 -23.3554 23.3614 -29.1879
2 -23.2254 17.617 -23.2745
2 -23.3219 23.271 -23.274
3 -23.3389 20.4855 -29.0046
3 -20.4517 17.6373 -28.9676
3 -17.072 20.4927 -17.7858
3 -20.618 22.8654 -17.6978
3 -24.0375 20.4463 -23.45
3 -20.3822 18.2748 -23.5204
3 -16.9428 20.4076 -23.1153
3 -20.455 22.7066 -23.2566
3 -23.2873 23.4056 -26.2353
3 -17.6527 23.2003 -26.2425
3 -17.8332 17.3345 -20.3842
3 -23.0544 18.0299 -20.3632
1 -21.016 20.8005 -14.5007
1 -20.2045 20.4625 -8.75823
1 -20.6705 15.3027 -14.5302
1 -20.5013 26.2865 -8.78078
2 -23.2943 17.7637 -17.4484
2 -23.4947 23.4588 -17.4244
2 -23.4315 17.7431 -11.5883
2 -23.5312 23.4609 -11.5798
3 -24.0174 20.6074 -17.0828
3 -20.4353 18.2758 -17.1162
3 -17.2333 20.5785 -6.19656
3 -20.6616 23.085 -6.1717
3 -23.8333 20.6039 -11.9854
3 -20.5312 18.183 -11.9583
3 -17.2446 20.5315 -11.2881
3 -20.638 23.1857 -11.301
3 -23.268 23.8115 -14.5007
3 -18.1093 23.1339 -14.5243
3 -18.0669 17.3809 -8.732
3 -23.2282 18.2838 -8.7232
1 -21.0611 20.9126 -2.92028
1 -20.2138 20.4754 2.88453
1 -20.7958 15.3695 -2.93108
1 -20.487 26.2555 2.90956
2 -23.4833 17.8041 -5.84278
2 -23.5347 23.515 -5.83154
2 -23.5094 17.8268 -0.00854016
2 -23.5247 23.573 -0.00600401
3 -23.9899 20.665 -5.40503
3 -20.5856 18.2902 -5.46698
3 -17.2589 20.5804 5.44894
3 -20.6774 23.152 5.43239
3 -23.9523 20.6999 -0.442133
3 -20.5993 18.2734 -0.384197
3 -17.2561 20.5852 0.31121
3 -20.6629 23.1222 0.333069
3 -23.2645 23.9838 -2.91747
3 -18.1655 23.2317 -2.93254
3 -18.0689 17.417 2.87317
3 -23.2543 18.3388 2.86447
1 -21.0845 20.894 8.63412
1 -20.0966 20.4785 14.5023
1 -20.736 15.3359 8.66709
1 -20.4666 26.2856 14.4967
2 -23.4941 17.8004 5.729
2 -23.5592 23.5457 5.7263
2 -23.3705 17.786 11.5666
2 -23.6282 23.4483 11.5585
3 -23.9187 20.6703 6.15458
3 -20.5809 18.243 6.11502
3 -17.1784 20.5207 17.0718
3 -20.6193 23.0365 17.1697
3 -24.0813 20.6175 11.1138
3 -20.5117 18.3177 11.1922
3 -17.1811 20.5614 11.9498
3 -20.7078 23.023 11.8574
3 -23.335 23.9324 8.64417
3 -18.1778 23.2122 8.6888
3 -18.0067 17.3747 14.4895
3 -23.0719 18.252 14.4581
1 -20.9184 20.7329 20.3121
1 -20.3283 20.2368 26.156
1 -20.6701 15.1242 20.2893
1 -20.36 26.0964 26.0326
2 -23.3204 17.6932 17.3279
2 -23.5372 23.3734 17.3389
2 -23.3557 17.561 23.1531
2 -23.3331 23.3373 23.1916
3 -23.9055 20.5343 17.7709
3 -20.4654 18.1592 17.7524
3 -17.4615 20.3785 28.6716
3 -20.3528 23.216 28.6394
3 -23.7886 20.457 22.919
3 -20.4588 18.1141 22.898
3 -17.0482 20.4988 23.5678
3 -20.4729 22.9031 23.5524
3 -23.2678 23.6833 20.284
3 -18.0481 23.1244 20.3235
3 -17.7487 17.3501 26.0771
3 -23.1717 17.7692 26.044
4 -20.3394 20.3395 31.2742
4 -20.3719 14.5886 31.3254
2 -23.2879 17.4596 28.9595
2 -23.2373 23.2325 28.9957
3 -23.2406 20.3525 28.9359
3 -20.4001 17.4549 28.9213
3 -23.1768 23.2737 31.9718
3 -17.7881 22.9698 32.0175
4 -14.7778 26.176 -31.4793
4 -14.717 31.5625 -31.4133
3 -11.8848 26.2064 -29.1209
3 -14.7285 28.9943 -28.8852
3 -11.8521 23.3101 -32.0995
3 -17.5902 23.5665 -32.1665
1 -14.7563 26.1561 -26.3136
1 -14.5479 26.0451 -20.2838
1 -14.8342 20.5249 -26.3829
4 -14.6469 31.1954 -20.4149
2 -17.6055 23.3819 -29.2002
2 -17.6069 29.1963 -29.1055
2 -17.5618 23.2714 -23.2846
2 -17.5678 29.0049 -23.2681
3 -17.6137 26.2673 -28.9661
3 -14.7353 23.3557 -29.0046
3 -11.5454 26.0434 -17.6809
3 -14.7787 28.666 -17.5098
3 -18.1607 26.1382 -23.5099
3 -14.7164 23.9195 -23.4158
3 -11.2657 26.0045 -23.1245
3 -14.6844 28.5121 -23.2751
3 -17.6214 29.1351 -26.1899
3 -11.8219 28.8205 -26.1649
3 -12.2516 22.9299 -20.3493
3 -17.565 23.6066 -20.3664
1 -15.0365 26.4417 -14.5014
1 -14.6378 26.2861 -8.74278
1 -15.0567 20.9167 -14.5108
4 -14.9961 31.5034 -8.76432
2 -17.7292 23.3454 -17.4423
2 -17.6646 29.1513 -17.4805
2 -17.7228 23.4029 -11.6115
2 -17.675 29.2264 -11.6409
3 -18.1671 26.2483 -17.2054
3 -14.8576 23.8399 -17.1006
3 -11.623 26.2592 -6.22972
3 -14.8465 28.9271 -5.87509
3 -17.9364 26.3023 -11.9297
3 -14.855 23.7863 -12.0012
3 -11.6408 26.2311 -11.2784
3 -14.7934 28.9348 -11.6317
3 -17.6673 29.2719 -14.5594
3 -11.9792 28.7191 -14.5572
3 -12.5161 23.0821 -8.72731
3 -17.53 23.8485 -8.73335
1 -15.1871 26.5429 -2.95485
1 -14.5857 26.2201 2.86721
1 -15.1239 21.007 -2.95315
4 -14.7442 31.392 2.8822
2 -17.7629 23.4566 -5.84752
2 -17.7296 29.2996 -5.85771
2 -17.7672 23.4665 -0.0124098
2 -17.711 29.2674 -0.00806861
3 -18.0837 26.3676 -5.57161
3 -14.893 23.9001 -5.46169
3 -11.6046 26.1326 5.48292
3 -14.8406 28.7642 5.7359
3 -18.1581 26.363 -0.310947
3 -14.9075 23.8989 -0.42941
3 -11.6179 26.136 0.262864
3 -14.8452 28.7898 0.0186556
3 -17.7795 29.4012 -2.93687
3 -12.0665 28.7647 -2.93566
3 -12.5496 23.0127 2.88087
3 -17.5176 23.8537 2.88193
1 -15.1774 26.5324 8.7253
1 -14.7278 26.2616 14.4805
1 -15.1121 21.0023 8.71089
4 -15.094 31.5482 14.4639
2 -17.7672 23.4563 5.77022
2 -17.7057 29.2462 5.78087
2 -17.7886 23.4193 11.6013
2 -17.7699 29.2874 11.6223
3 -18.1548 26.3456 6.09532
3 -14.9073 23.8918 6.19691
3 -11.6884 26.2671 16.9429
3 -14.8057 29.0016 17.3777
3 -18.0602 26.3396 11.3734
3 -14.9106 23.8867 11.2337
3 -11.6757 26.2823 12.0415
3 -14.875 28.9586 11.6258
3 -17.7817 29.364 8.7102
3 -12.0657 28.7481 8.68754
3 -12.5504 23.0718 14.4882
3 -17.6092 23.7719 14.5033
1 -15.0245 26.4852 20.2305
1 -14.3623 26.1381 26.066
1 -14.9751 20.8995 20.2961
4 -14.5762 31.3179 25.9926
2 -17.7044 23.3881 17.4004
2 -17.7072 29.2576 17.3994
2 -17.5897 23.3627 23.2404
2 -17.5685 29.1412 23.2383
3 -17.923 26.3082 17.6571
3 -14.8354 23.788 17.7926
3 -11.5721 26.1293 28.7651
3 -14.4671 28.8682 28.8273
3 -18.0691 26.2488 22.9057
3 -14.7334 23.887 22.8465
3 -11.4134 26.1129 23.4732
3 -14.6814 28.7099 23.2335
3 -17.6509 29.321 20.3175
3 -11.918 28.7168 20.2666
3 -12.0825 23.0478 26.1134
3 -17.2646 23.7821 26.1383
4 -14.1971 26.1522 31.4558
4 -14.7845 20.1217 31.3721
2 -17.4589 23.2668 29.0558
2 -17.3541 29.0127 29.1007
3 -17.335 26.1398 29.4265
3 -14.5708 23.1929 29.2156
3 -17.1859 29.3308 32.0903
3 -11.5593 29.07 31.9442
4 -8.96282 31.4309 -31.4723
3 -6.17049 32.0457 -29.0448
3 -6.05012 29.0484 -32.0346
3 -11.8991 29.1477 -32.0826
4 -9.01187 31.4015 -26.1303
4 -8.83295 31.3448 -20.2556
1 -9.04438 26.0563 -26.2454
2 -11.8474 29.1178 -29.086
2 -11.7831 28.9079 -23.2498
3 -11.7881 32.0848 -29.015
3 -8.97383 28.8657 -28.9391
3 -5.95593 31.8796 -17.7063
3 -11.9643 31.9047 -23.3088
3 -8.90647 29.1846 -23.2286
3 -5.70061 31.8267 -23.1342
3 -6.03158 28.557 -20.3378
3 -11.7874 28.8672 -20.3651
4 -9.17936 31.4157 -14.6632
4 -8.55081 31.4309 -8.76434
1 -9.13597 26.2786 -14.5595
2 -11.8821 28.9597 -17.4646
2 -11.8944 29.1898 -11.6453
3 -11.9307 31.9198 -17.5061
3 -8.99163 28.991 -17.4267
3 -5.76384 31.9092 -6.11211
3 -12.0276 32.1215 -12.1833
3 -9.00651 29.1832 -11.7019
3 -5.77162 31.8801 -11.4676
3 -6.10187 28.5395 -8.7443
3 -11.8816 29.4923 -8.75188
4 -9.28297 31.4915 -2.80608
4 -8.90159 31.406 2.86577
1 -9.19695 26.3799 -2.90437
2 -11.9406 29.2085 -5.8503
2 -11.953 29.0553 -0.0238888
3 -12.1105 32.1478 -5.38287
3 -9.04763 29.2664 -5.77454
3 -6.10011 31.9761 5.5353
3 -12.0481 32.0185 -0.0802116
3 -9.0705 29.0807 -0.0404541
3 -6.12472 31.9776 0.204453
3 -6.15293 28.6216 2.85944
3 -11.8941 29.0671 2.87423
4 -9.27778 31.4838 8.54747
4 -8.55097 31.4479 14.4836
1 -9.18407 26.3795 8.62933
2 -11.9497 29.0483 5.7722
2 -11.9602 29.2288 11.5982
3 -12.0487 32.0107 5.82843
3 -9.06693 29.0841 5.77472
3 -5.79021 31.905 17.1972
3 -12.1129 32.1636 11.0696
3 -9.05928 29.2441 11.52
3 -5.79828 31.9279 11.8135
3 -6.08139 28.5668 14.4449
3 -11.9128 29.6443 14.4827
4 -9.04599 31.441 20.3111
4 -8.71479 31.3958 25.9774
1 -9.03059 26.3115 20.2769
2 -11.8891 29.2217 17.3548
2 -11.7817 29.0157 23.1627
3 -11.9299 32.1498 17.9609
3 -8.98693 29.1346 17.3926
3 -5.77354 31.9794 28.8833
3 -11.8939 31.9832 23.1841
3 -8.89449 29.0673 23.1155
3 -5.93885 31.9594 23.2629
3 -5.93407 28.7798 26.0045
3 -11.6543 29.0481 26.0706
4 -8.62466 31.3963 31.3175
4 -8.68491 25.9961 31.2541
2 -11.5755 29.0601 28.9727
3 -11.4623 32.0565 28.9284
3 -8.70103 28.8374 28.7803
4 -3.08821 31.1176 -25.8616
4 -3.13744 31.1313 -14.468
4 -3.17829 31.1911 -3.1047
4 -3.19193 31.2018 8.77587
4 -3.10877 31.1854 20.0829
4 -2.87258 31.2781 31.2996
4 -31.2773 -2.59012 -31.3344
4 -31.2602 3.19393 -31.5175
3 -28.7122 -2.54634 -28.801
3 -31.936 0.39086 -29.1393
3 -28.8685 -5.41057 -31.9935
4 -31.0409 -2.69291 -25.7735
4 -30.912 -2.62136 -20.2962
4 -31.0689 -8.28604 -26.0018
4 -31.2275 2.89708 -20.2949
3 -31.789 -5.48931 -28.8936
3 -28.3307 -2.52617 -17.4492
3 -31.7306 0.0339831 -17.6943
3 -31.5966 -5.41512 -23.2446
3 -28.2415 -2.60099 -23.2064
3 -31.7076 -0.0747507 -23.025
3 -28.9235 0.341046 -26.1214
3 -28.5917 -5.50131 -20.2982
4 -31.0049 -2.61754 -14.5681
4 -31.0109 -2.48738 -8.74675
4 -31.0571 -8.00662 -14.5321
4 -31.2623 2.93448 -8.7576
3 -31.5886 -5.28997 -17.3235
3 -28.4015 -2.44749 -5.88005
3 -31.7875 0.115607 -6.0994
3 -31.6452 -5.24671 -11.8965
3 -28.3892 -2.49751 -11.6041
3 -31.7689 0.124878 -11.4456
3 -28.9053 0.413027 -14.5344
3 -28.7938 -5.4485 -8.73159
4 -31.0613 -2.53133 -2.99758
4 -31.088 -2.39005 2.83711
4 -31.1051 -7.94562 -2.96866
4 -31.2854 3.06002 2.85391
3 -31.6627 -5.20502 -5.66273
3 -28.5003 -2.45518 5.72266
3 -31.8426 0.255848 5.51255
3 -31.7126 -5.16991 -0.345094
3 -28.4606 -2.43307 -0.00172209
3 -31.8238 0.247628 0.184203
3 -28.9675 0.499759 -2.94099
3 -28.9466 -5.41389 2.86234
4 -31.0796 -2.57903 8.73279
4 -31.0362 -2.57074 14.4368
4 -31.1166 -8.00078 8.70399
4 -31.319 2.80961 14.494
3 -31.7307 -5.23215 6.09516
3 -28.4389 -2.5645 17.2966
3 -31.7946 0.00614617 17.1882
3 -31.6639 -5.2493 11.4323
3 -28.4118 -2.4799 11.5881
3 -31.8159 0.0273853 11.8208
3 -28.9958 0.467796 8.65124
3 -28.7559 -5.47145 14.4363
4 -31.0793 -2.67757 20.0882
4 -31.172 -2.63248 25.7372
4 -31.164 -8.12673 20.0773
4 -31.2961 2.92558 25.9851
3 -31.6807 -5.3701 17.4467
3 -28.7096 -2.81427 28.6662
3 -31.8739 0.0299522 28.8722
3 -31.7731 -5.2328 22.8161
3 -28.4563 -2.63526 23.1317
3 -31.8576 0.152014 23.2795
3 -28.9206 0.309562 20.2272
3 -29.0476 -5.68137 25.9992
4 -31.1981 -2.88537 31.2772
4 -30.9512 -8.69143 31.4334
3 -31.8231 -5.90293 29.1417
3 -28.9116 0.0123462 31.9191
4 -25.9294 3.15054 -31.4553
4 -26.0541 8.99291 -31.4784
3 -23.1322 3.2374 -29.007
3 -26.088 6.10152 -29.1187
3 -23.3291 0.326834 -32.0876
3 -28.8524 0.276037 -32.023
1 -25.9441 3.28916 -26.2159
1 -25.9001 3.0987 -20.2912
1 -25.8538 -2.46481 -26.2004
1 -25.955 8.82858 -20.2701
2 -28.9557 0.32792 -29.0323
2 -28.9961 6.0797 -29.0871
2 -28.7447 0.271003 -23.2078
2 -28.8425 6.0279 -23.2379
3 -28.7479 3.20726 -28.93
3 -26.0229 0.353995 -28.8738
3 -22.5297 3.35041 -17.7462
3 -25.957 5.78117 -17.6881
3 -29.046 3.14299 -23.2462
3 -25.8622 0.785321 -23.501
3 -22.4601 3.25115 -23.1671
3 -25.9264 5.55648 -23.1057
3 -28.6944 6.07724 -26.1619
3 -23.2923 6.04906 -26.188
3 -23.3417 0.284141 -20.3369
3 -28.3949 0.257027 -20.3231
1 -26.1475 3.40069 -14.5117
1 -25.896 3.14591 -8.74212
1 -26.0258 -2.16729 -14.516
1 -26.0848 8.83589 -8.74173
2 -28.7915 0.338265 -17.4368
2 -28.8917 6.09839 -17.4472
2 -28.8246 0.3704 -11.6224
2 -28.9447 6.13835 -11.6369
3 -28.9699 3.21782 -17.3947
3 -25.8714 0.786379 -17.1433
3 -22.6078 3.4251 -6.18336
3 -26.035 5.83927 -6.15993
3 -28.9734 3.25311 -11.6723
3 -25.899 0.780026 -11.9164
3 -22.6123 3.38305 -11.3038
3 -26.0058 5.83517 -11.3409
3 -28.5977 6.22722 -14.5441
3 -23.4099 5.96201 -14.5308
3 -23.4117 0.256495 -8.72236
3 -28.4292 0.352936 -8.73751
1 -26.2199 3.47644 -2.92534
1 -25.9493 3.18126 2.86731
1 -26.1253 -2.07388 -2.92274
1 -26.1031 8.85253 2.86061
2 -28.852 0.42664 -5.85157
2 -28.9677 6.19997 -5.84702
2 -28.8787 0.444207 -0.0301206
2 -28.9509 6.22079 -0.039372
3 -29.0557 3.30896 -5.79185
3 -25.9305 0.868017 -5.54388
3 -22.6466 3.41683 5.43823
3 -26.0327 5.86809 5.47221
3 -29.0089 3.33077 -0.0739319
3 -25.947 0.848037 -0.321672
3 -22.6269 3.43748 0.315442
3 -26.0257 5.86753 0.268387
3 -28.6169 6.34257 -2.94273
3 -23.4523 6.00797 -2.93139
3 -23.4569 0.282503 2.87191
3 -28.4781 0.39356 2.85635
1 -26.2669 3.42819 8.6394
1 -25.8596 3.07686 14.4861
1 -26.1436 -2.1096 8.63252
1 -26.152 8.84944 14.4758
2 -28.8982 0.41902 5.73791
2 -28.9609 6.18994 5.75109
2 -28.8828 0.390773 11.5594
2 -29.0553 6.15537 11.5729
3 -28.9929 3.30438 5.77713
3 -25.9623 0.796511 6.0483
3 -22.7202 3.31152 17.0072
3 -26.1148 5.85353 17.0128
3 -29.1436 3.26766 11.509
3 -25.9607 0.848871 11.2792
3 -22.6713 3.3805 11.974
3 -26.1157 5.82162 11.9549
3 -28.6529 6.29113 8.66386
3 -23.513 5.94759 8.68772
3 -23.4225 0.147169 14.4652
3 -28.4519 0.303602 14.4441
1 -26.2044 3.26784 20.2608
1 -25.9337 2.95034 26.0206
1 -26.104 -2.30653 20.2182
1 -26.0626 8.67063 26.0344
2 -28.8496 0.30654 17.3168
2 -29.0707 6.07689 17.3531
2 -28.8851 0.241236 23.1141
2 -28.9309 6.01293 23.1541
3 -29.0115 3.18547 17.4027
3 -25.9308 0.678965 17.6323
3 -23.1077 3.05871 28.6395
3 -26.0487 5.86399 28.764
3 -28.9774 3.12595 23.1131
3 -25.9489 0.622935 22.9278
3 -22.6375 3.23587 23.5165
3 -26.0241 5.66391 23.4627
3 -28.6329 6.13431 20.2617
3 -23.4845 5.82168 20.2647
3 -23.3336 0.041487 26.0273
3 -28.662 0.167378 26.0071
4 -25.8829 2.97068 31.2483
4 -25.8999 -2.86133 31.2707
2 -28.9016 0.0634872 28.9251
2 -28.975 5.82972 28.9637
3 -28.7305 2.95314 28.7791
3 -25.9977 0.0730435 28.9374
3 -28.9524 5.81985 31.9399
3 -23.3996 5.66203 32.0033
4 -20.4207 8.90485 -31.5225
4 -20.3567 14.7869 -31.4993
3 -17.4497 8.98414 -29.2355
3 -20.4116 11.8424 -29.1309
3 -17.585 5.97518 -32.1387
3 -23.1998 6.12151 -32.1082
1 -20.3975 9.07284 -26.3597
1 -19.8171 8.79093 -20.3883
1 -20.323 3.30367 -26.3189
1 -20.2299 14.3518 -20.3914
2 -23.199 6.11098 -29.1384
2 -23.2911 11.854 -29.1895
2 -23.0487 6.14523 -23.2426
2 -23.1879 11.8518 -23.2806
3 -23.2579 8.98498 -28.9666
3 -20.3228 6.14975 -28.9165
3 -16.8191 8.99498 -17.838
3 -20.3317 11.3593 -17.8112
3 -23.8034 8.99106 -23.4325
3 -20.1901 6.70533 -23.5441
3 -16.7901 8.93218 -23.0676
3 -20.3118 11.2178 -23.135
3 -23.1495 11.9396 -26.2335
3 -17.581 11.6267 -26.2585
3 -17.6256 5.78065 -20.3842
3 -22.8562 6.53192 -20.3488
1 -20.7639 9.31303 -14.5419
1 -19.8362 8.86564 -8.74447
1 -20.4179 3.77945 -14.5357
1 -20.2888 14.368 -8.74968
2 -23.069 6.2229 -17.4485
2 -23.1773 11.9736 -17.4567
2 -23.1151 6.26049 -11.6044
2 -23.2496 11.9788 -11.6297
3 -23.6435 9.08907 -17.1245
3 -20.1902 6.72903 -17.1129
3 -16.8934 9.05284 -6.20218
3 -20.4375 11.4477 -6.18901
3 -23.6635 9.1122 -12.0158
3 -20.2234 6.71297 -11.984
3 -16.8846 9.02096 -11.3102
3 -20.3802 11.4413 -11.3096
3 -22.9684 12.3691 -14.5425
3 -17.7701 11.5773 -14.5657
3 -17.6942 5.83252 -8.74546
3 -22.8861 6.75415 -8.7331
1 -20.8852 9.368 -2.93563
1 -19.8619 8.89779 2.88014
1 -20.4609 3.84823 -2.92951
1 -20.3077 14.4036 2.87467
2 -23.1538 6.30509 -5.85332
2 -23.3132 12.0404 -5.85112
2 -23.1496 6.32235 -0.0045275
2 -23.3265 12.054 -0.0195787
3 -23.7713 9.1631 -5.47128
3 -20.2562 6.77918 -5.49069
3 -16.9194 9.05389 5.43758
3 -20.4285 11.4745 5.44314
3 -23.7722 9.17715 -0.406339
3 -20.2605 6.79081 -0.372793
3 -16.9093 9.06451 0.336712
3 -20.4511 11.4726 0.314778
3 -23.0685 12.4312 -2.93605
3 -17.8589 11.5808 -2.93381
3 -17.7286 5.85643 2.88466
3 -22.9032 6.78139 2.88069
1 -20.837 9.35203 8.69902
1 -19.9035 8.82518 14.5036
1 -20.4904 3.81954 8.68872
1 -20.251 14.3669 14.5027
2 -23.1553 6.29762 5.76248
2 -23.3004 12.0239 5.76374
2 -23.2158 6.25564 11.606
2 -23.2779 12.0028 11.5894
3 -23.7234 9.15265 6.17753
3 -20.2692 6.75874 6.14312
3 -16.9516 8.99142 17.0734
3 -20.4018 11.424 17.0693
3 -23.7392 9.12206 11.2024
3 -20.3027 6.72506 11.2527
3 -16.9279 9.03576 11.9629
3 -20.4128 11.4263 11.9562
3 -23.0329 12.4231 8.67862
3 -17.8412 11.6011 8.69016
3 -17.7362 5.80911 14.5026
3 -22.9582 6.7263 14.4825
1 -20.7837 9.23317 20.281
1 -20.1059 8.78976 26.2225
1 -20.4506 3.70256 20.2906
1 -20.228 14.5134 26.1842
2 -23.2044 6.18813 17.3433
2 -23.2896 11.9176 17.3647
2 -23.1514 6.11656 23.1823
2 -23.2762 11.826 23.2066
3 -23.6721 9.04748 17.7822
3 -20.2993 6.62158 17.7176
3 -17.3163 8.84076 28.7746
3 -20.3173 11.6884 28.7767
3 -23.7873 8.96859 22.8237
3 -20.2859 6.67993 22.9272
3 -16.8634 8.96456 23.533
3 -20.4086 11.283 23.4993
3 -23.0854 12.2707 20.2927
3 -17.8281 11.5509 20.2955
3 -17.6444 5.82835 26.1518
3 -22.9839 6.37471 26.1081
4 -20.0285 8.92556 31.3983
4 -20.4194 2.90467 31.3578