#LAMMPS configuration without high energy Cs 

7407 atoms 

4 atom types

-532.296864   532.296864    xlo xhi
-532.355912   532.355912    ylo yhi
-532.271196   532.271196    zlo zhi

Masses

1   132.910000   # Cs
2   207.200000   # Pb
3   79.904000   # Br
4   132.910000   # Cs

Atoms

1   1   3   -0.630000   -28.555072   32.066511   -29.757211   
2   2   3   -0.630000   -29.541510   28.822030   -32.271196   
3   3   4   0.712986   -32.296864   32.355912   -26.403706   
4   4   4   0.712986   -31.888525   31.829477   -20.536216   
5   5   4   0.712986   -32.279540   26.538200   -26.403706   
6   6   3   -0.630000   -32.101554   29.812605   -28.917690   
7   7   3   -0.630000   -28.555072   32.066511   -18.022231   
8   8   3   -0.630000   -32.101554   29.812605   -23.889721   
9   9   3   -0.630000   -28.555072   32.066511   -23.050200   
10   10   3   -0.630000   -29.541510   28.822030   -20.536216   
11   11   4   0.712986   -32.296864   32.355912   -14.668725   
12   12   4   0.712986   -31.888525   31.829477   -8.801235   
13   13   4   0.712986   -32.279540   26.538200   -14.668725   
14   14   3   -0.630000   -32.101554   29.812605   -17.182710   
15   15   3   -0.630000   -28.555072   32.066511   -6.287250   
16   16   3   -0.630000   -32.101554   29.812605   -12.154741   
17   17   3   -0.630000   -28.555072   32.066511   -11.315220   
18   18   3   -0.630000   -29.541510   28.822030   -8.801235   
19   19   4   0.712986   -32.296864   32.355912   -2.933745   
20   20   4   0.712986   -31.888525   31.829477   2.933745   
21   21   4   0.712986   -32.279540   26.538200   -2.933745   
22   22   3   -0.630000   -32.101554   29.812605   -5.447730   
23   23   3   -0.630000   -28.555072   32.066511   5.447730   
24   24   3   -0.630000   -32.101554   29.812605   -0.419760   
25   25   3   -0.630000   -28.555072   32.066511   0.419760   
26   26   3   -0.630000   -29.541510   28.822030   2.933745   
27   27   4   0.712986   -32.296864   32.355912   8.801235   
28   28   4   0.712986   -31.888525   31.829477   14.668725   
29   29   4   0.712986   -32.279540   26.538200   8.801235   
30   30   3   -0.630000   -32.101554   29.812605   6.287250   
31   31   3   -0.630000   -28.555072   32.066511   17.182710   
32   32   3   -0.630000   -32.101554   29.812605   11.315220   
33   33   3   -0.630000   -28.555072   32.066511   12.154741   
34   34   3   -0.630000   -29.541510   28.822030   14.668725   
35   35   4   0.712986   -32.296864   32.355912   20.536216   
36   36   4   0.712986   -31.888525   31.829477   26.403706   
37   37   4   0.712986   -32.279540   26.538200   20.536216   
38   38   3   -0.630000   -32.101554   29.812605   18.022231   
39   39   3   -0.630000   -28.555072   32.066511   28.917690   
40   40   3   -0.630000   -32.101554   29.812605   23.050200   
41   41   3   -0.630000   -28.555072   32.066511   23.889721   
42   42   3   -0.630000   -29.541510   28.822030   26.403706   
43   43   4   0.712986   -32.279540   26.538200   32.271196   
44   44   3   -0.630000   -32.101554   29.812605   29.757211   
45   45   4   0.712986   -26.479152   32.338588   -26.403706   
46   46   4   0.712986   -26.479152   32.338588   -14.668725   
47   47   4   0.712986   -26.479152   32.338588   -2.933745   
48   48   4   0.712986   -26.479152   32.338588   8.801235   
49   49   4   0.712986   -26.479152   32.338588   20.536216   
50   50   4   0.712986   -26.479152   32.338588   32.271196   
51   51   4   0.712986   -31.853877   20.194055   -32.271196   
52   52   4   0.712986   -31.871201   26.011766   -32.271196   
53   53   3   -0.630000   -28.520424   20.431088   -29.757211   
54   54   3   -0.630000   -32.049186   22.737361   -29.757211   
55   55   3   -0.630000   -29.506862   17.186608   -32.271196   
56   56   4   0.712986   -32.262215   20.720489   -26.403706   
57   57   4   0.712986   -31.853877   20.194055   -20.536216   
58   58   4   0.712986   -32.244891   14.902778   -26.403706   
59   59   4   0.712986   -31.871201   26.011766   -20.536216   
60   60   3   -0.630000   -32.066906   18.177183   -28.917690   
61   61   3   -0.630000   -28.520424   20.431088   -18.022231   
62   62   3   -0.630000   -32.049186   22.737361   -18.022231   
63   63   3   -0.630000   -32.066906   18.177183   -23.889721   
64   64   3   -0.630000   -28.520424   20.431088   -23.050200   
65   65   3   -0.630000   -32.049186   22.737361   -23.050200   
66   66   3   -0.630000   -29.510999   22.991132   -26.403706   
67   67   3   -0.630000   -29.506862   17.186608   -20.536216   
68   68   4   0.712986   -32.262215   20.720489   -14.668725   
69   69   4   0.712986   -31.853877   20.194055   -8.801235   
70   70   4   0.712986   -32.244891   14.902778   -14.668725   
71   71   4   0.712986   -31.871201   26.011766   -8.801235   
72   72   3   -0.630000   -32.066906   18.177183   -17.182710   
73   73   3   -0.630000   -28.520424   20.431088   -6.287250   
74   74   3   -0.630000   -32.049186   22.737361   -6.287250   
75   75   3   -0.630000   -32.066906   18.177183   -12.154741   
76   76   3   -0.630000   -28.520424   20.431088   -11.315220   
77   77   3   -0.630000   -32.049186   22.737361   -11.315220   
78   78   3   -0.630000   -29.510999   22.991132   -14.668725   
79   79   3   -0.630000   -29.506862   17.186608   -8.801235   
80   80   4   0.712986   -32.262215   20.720489   -2.933745   
81   81   4   0.712986   -31.853877   20.194055   2.933745   
82   82   4   0.712986   -32.244891   14.902778   -2.933745   
83   83   4   0.712986   -31.871201   26.011766   2.933745   
84   84   3   -0.630000   -32.066906   18.177183   -5.447730   
85   85   3   -0.630000   -28.520424   20.431088   5.447730   
86   86   3   -0.630000   -32.049186   22.737361   5.447730   
87   87   3   -0.630000   -32.066906   18.177183   -0.419760   
88   88   3   -0.630000   -28.520424   20.431088   0.419760   
89   89   3   -0.630000   -32.049186   22.737361   0.419760   
90   90   3   -0.630000   -29.510999   22.991132   -2.933745   
91   91   3   -0.630000   -29.506862   17.186608   2.933745   
92   92   4   0.712986   -32.262215   20.720489   8.801235   
93   93   4   0.712986   -31.853877   20.194055   14.668725   
94   94   4   0.712986   -32.244891   14.902778   8.801235   
95   95   4   0.712986   -31.871201   26.011766   14.668725   
96   96   3   -0.630000   -32.066906   18.177183   6.287250   
97   97   3   -0.630000   -28.520424   20.431088   17.182710   
98   98   3   -0.630000   -32.049186   22.737361   17.182710   
99   99   3   -0.630000   -32.066906   18.177183   11.315220   
100   100   3   -0.630000   -28.520424   20.431088   12.154741   
101   101   3   -0.630000   -32.049186   22.737361   12.154741   
102   102   3   -0.630000   -29.510999   22.991132   8.801235   
103   103   3   -0.630000   -29.506862   17.186608   14.668725   
104   104   4   0.712986   -32.262215   20.720489   20.536216   
105   105   4   0.712986   -31.853877   20.194055   26.403706   
106   106   4   0.712986   -32.244891   14.902778   20.536216   
107   107   4   0.712986   -31.871201   26.011766   26.403706   
108   108   3   -0.630000   -32.066906   18.177183   18.022231   
109   109   3   -0.630000   -28.520424   20.431088   28.917690   
110   110   3   -0.630000   -32.049186   22.737361   28.917690   
111   111   3   -0.630000   -32.066906   18.177183   23.050200   
112   112   3   -0.630000   -28.520424   20.431088   23.889721   
113   113   3   -0.630000   -32.049186   22.737361   23.889721   
114   114   3   -0.630000   -29.510999   22.991132   20.536216   
115   115   3   -0.630000   -29.506862   17.186608   26.403706   
116   116   4   0.712986   -32.262215   20.720489   32.271196   
117   117   4   0.712986   -32.244891   14.902778   32.271196   
118   118   3   -0.630000   -32.066906   18.177183   29.757211   
119   119   3   -0.630000   -29.510999   22.991132   32.271196   
120   120   4   0.712986   -26.053490   25.994442   -32.271196   
121   121   4   0.712986   -26.070814   31.812153   -32.271196   
122   122   3   -0.630000   -22.720037   26.231475   -29.757211   
123   123   3   -0.630000   -26.248799   28.537748   -29.757211   
124   124   3   -0.630000   -23.706475   22.986995   -32.271196   
125   125   3   -0.630000   -28.804706   23.723799   -32.271196   
126   126   1   0.860000   -26.461828   26.520876   -26.403706   
127   127   1   0.860000   -26.053490   25.994442   -20.536216   
128   128   1   0.860000   -26.444504   20.703165   -26.403706   
129   129   4   0.712986   -26.070814   31.812153   -20.536216   
130   130   2   1.030000   -29.157853   23.357466   -29.337451   
131   131   2   1.030000   -29.175177   29.175177   -29.337451   
132   132   2   1.030000   -29.157853   23.357466   -23.469961   
133   133   2   1.030000   -29.175177   29.175177   -23.469961   
134   134   3   -0.630000   -29.795281   26.283843   -28.917690   
135   135   3   -0.630000   -26.266519   23.977570   -28.917690   
136   136   3   -0.630000   -22.720037   26.231475   -18.022231   
137   137   3   -0.630000   -26.248799   28.537748   -18.022231   
138   138   3   -0.630000   -29.795281   26.283843   -23.889721   
139   139   3   -0.630000   -26.266519   23.977570   -23.889721   
140   140   3   -0.630000   -22.720037   26.231475   -23.050200   
141   141   3   -0.630000   -26.248799   28.537748   -23.050200   
142   142   3   -0.630000   -28.808843   29.528323   -26.403706   
143   143   3   -0.630000   -23.710612   28.791519   -26.403706   
144   144   3   -0.630000   -23.706475   22.986995   -20.536216   
145   145   3   -0.630000   -28.804706   23.723799   -20.536216   
146   146   1   0.860000   -26.461828   26.520876   -14.668725   
147   147   1   0.860000   -26.053490   25.994442   -8.801235   
148   148   1   0.860000   -26.444504   20.703165   -14.668725   
149   149   4   0.712986   -26.070814   31.812153   -8.801235   
150   150   2   1.030000   -29.157853   23.357466   -17.602470   
151   151   2   1.030000   -29.175177   29.175177   -17.602470   
152   152   2   1.030000   -29.157853   23.357466   -11.734980   
153   153   2   1.030000   -29.175177   29.175177   -11.734980   
154   154   3   -0.630000   -29.795281   26.283843   -17.182710   
155   155   3   -0.630000   -26.266519   23.977570   -17.182710   
156   156   3   -0.630000   -22.720037   26.231475   -6.287250   
157   157   3   -0.630000   -26.248799   28.537748   -6.287250   
158   158   3   -0.630000   -29.795281   26.283843   -12.154741   
159   159   3   -0.630000   -26.266519   23.977570   -12.154741   
160   160   3   -0.630000   -22.720037   26.231475   -11.315220   
161   161   3   -0.630000   -26.248799   28.537748   -11.315220   
162   162   3   -0.630000   -28.808843   29.528323   -14.668725   
163   163   3   -0.630000   -23.710612   28.791519   -14.668725   
164   164   3   -0.630000   -23.706475   22.986995   -8.801235   
165   165   3   -0.630000   -28.804706   23.723799   -8.801235   
166   166   1   0.860000   -26.461828   26.520876   -2.933745   
167   167   1   0.860000   -26.053490   25.994442   2.933745   
168   168   1   0.860000   -26.444504   20.703165   -2.933745   
169   169   4   0.712986   -26.070814   31.812153   2.933745   
170   170   2   1.030000   -29.157853   23.357466   -5.867490   
171   171   2   1.030000   -29.175177   29.175177   -5.867490   
172   172   2   1.030000   -29.157853   23.357466   -0.000000   
173   173   2   1.030000   -29.175177   29.175177   -0.000000   
174   174   3   -0.630000   -29.795281   26.283843   -5.447730   
175   175   3   -0.630000   -26.266519   23.977570   -5.447730   
176   176   3   -0.630000   -22.720037   26.231475   5.447730   
177   177   3   -0.630000   -26.248799   28.537748   5.447730   
178   178   3   -0.630000   -29.795281   26.283843   -0.419760   
179   179   3   -0.630000   -26.266519   23.977570   -0.419760   
180   180   3   -0.630000   -22.720037   26.231475   0.419760   
181   181   3   -0.630000   -26.248799   28.537748   0.419760   
182   182   3   -0.630000   -28.808843   29.528323   -2.933745   
183   183   3   -0.630000   -23.710612   28.791519   -2.933745   
184   184   3   -0.630000   -23.706475   22.986995   2.933745   
185   185   3   -0.630000   -28.804706   23.723799   2.933745   
186   186   1   0.860000   -26.461828   26.520876   8.801235   
187   187   1   0.860000   -26.053490   25.994442   14.668725   
188   188   1   0.860000   -26.444504   20.703165   8.801235   
189   189   4   0.712986   -26.070814   31.812153   14.668725   
190   190   2   1.030000   -29.157853   23.357466   5.867490   
191   191   2   1.030000   -29.175177   29.175177   5.867490   
192   192   2   1.030000   -29.157853   23.357466   11.734980   
193   193   2   1.030000   -29.175177   29.175177   11.734980   
194   194   3   -0.630000   -29.795281   26.283843   6.287250   
195   195   3   -0.630000   -26.266519   23.977570   6.287250   
196   196   3   -0.630000   -22.720037   26.231475   17.182710   
197   197   3   -0.630000   -26.248799   28.537748   17.182710   
198   198   3   -0.630000   -29.795281   26.283843   11.315220   
199   199   3   -0.630000   -26.266519   23.977570   11.315220   
200   200   3   -0.630000   -22.720037   26.231475   12.154741   
201   201   3   -0.630000   -26.248799   28.537748   12.154741   
202   202   3   -0.630000   -28.808843   29.528323   8.801235   
203   203   3   -0.630000   -23.710612   28.791519   8.801235   
204   204   3   -0.630000   -23.706475   22.986995   14.668725   
205   205   3   -0.630000   -28.804706   23.723799   14.668725   
206   206   1   0.860000   -26.461828   26.520876   20.536216   
207   207   1   0.860000   -26.053490   25.994442   26.403706   
208   208   1   0.860000   -26.444504   20.703165   20.536216   
209   209   4   0.712986   -26.070814   31.812153   26.403706   
210   210   2   1.030000   -29.157853   23.357466   17.602470   
211   211   2   1.030000   -29.175177   29.175177   17.602470   
212   212   2   1.030000   -29.157853   23.357466   23.469961   
213   213   2   1.030000   -29.175177   29.175177   23.469961   
214   214   3   -0.630000   -29.795281   26.283843   18.022231   
215   215   3   -0.630000   -26.266519   23.977570   18.022231   
216   216   3   -0.630000   -22.720037   26.231475   28.917690   
217   217   3   -0.630000   -26.248799   28.537748   28.917690   
218   218   3   -0.630000   -29.795281   26.283843   23.050200   
219   219   3   -0.630000   -26.266519   23.977570   23.050200   
220   220   3   -0.630000   -22.720037   26.231475   23.889721   
221   221   3   -0.630000   -26.248799   28.537748   23.889721   
222   222   3   -0.630000   -28.808843   29.528323   20.536216   
223   223   3   -0.630000   -23.710612   28.791519   20.536216   
224   224   3   -0.630000   -23.706475   22.986995   26.403706   
225   225   3   -0.630000   -28.804706   23.723799   26.403706   
226   226   4   0.712986   -26.461828   26.520876   32.271196   
227   227   4   0.712986   -26.444504   20.703165   32.271196   
228   228   2   1.030000   -29.157853   23.357466   29.337451   
229   229   2   1.030000   -29.175177   29.175177   29.337451   
230   230   3   -0.630000   -29.795281   26.283843   29.757211   
231   231   3   -0.630000   -26.266519   23.977570   29.757211   
232   232   3   -0.630000   -28.808843   29.528323   32.271196   
233   233   3   -0.630000   -23.710612   28.791519   32.271196   
234   234   4   0.712986   -20.253103   31.794829   -32.271196   
235   235   3   -0.630000   -16.919650   32.031862   -29.757211   
236   236   3   -0.630000   -17.906088   28.787382   -32.271196   
237   237   3   -0.630000   -23.004319   29.524186   -32.271196   
238   238   4   0.712986   -20.661441   32.321263   -26.403706   
239   239   4   0.712986   -20.253103   31.794829   -20.536216   
240   240   1   0.860000   -20.644117   26.503552   -26.403706   
241   241   2   1.030000   -23.357466   29.157853   -29.337451   
242   242   2   1.030000   -23.357466   29.157853   -23.469961   
243   243   3   -0.630000   -23.994894   32.084230   -28.917690   
244   244   3   -0.630000   -20.466132   29.777957   -28.917690   
245   245   3   -0.630000   -16.919650   32.031862   -18.022231   
246   246   3   -0.630000   -23.994894   32.084230   -23.889721   
247   247   3   -0.630000   -20.466132   29.777957   -23.889721   
248   248   3   -0.630000   -16.919650   32.031862   -23.050200   
249   249   3   -0.630000   -17.906088   28.787382   -20.536216   
250   250   3   -0.630000   -23.004319   29.524186   -20.536216   
251   251   4   0.712986   -20.661441   32.321263   -14.668725   
252   252   4   0.712986   -20.253103   31.794829   -8.801235   
253   253   1   0.860000   -20.644117   26.503552   -14.668725   
254   254   2   1.030000   -23.357466   29.157853   -17.602470   
255   255   2   1.030000   -23.357466   29.157853   -11.734980   
256   256   3   -0.630000   -23.994894   32.084230   -17.182710   
257   257   3   -0.630000   -20.466132   29.777957   -17.182710   
258   258   3   -0.630000   -16.919650   32.031862   -6.287250   
259   259   3   -0.630000   -23.994894   32.084230   -12.154741   
260   260   3   -0.630000   -20.466132   29.777957   -12.154741   
261   261   3   -0.630000   -16.919650   32.031862   -11.315220   
262   262   3   -0.630000   -17.906088   28.787382   -8.801235   
263   263   3   -0.630000   -23.004319   29.524186   -8.801235   
264   264   4   0.712986   -20.661441   32.321263   -2.933745   
265   265   4   0.712986   -20.253103   31.794829   2.933745   
266   266   1   0.860000   -20.644117   26.503552   -2.933745   
267   267   2   1.030000   -23.357466   29.157853   -5.867490   
268   268   2   1.030000   -23.357466   29.157853   -0.000000   
269   269   3   -0.630000   -23.994894   32.084230   -5.447730   
270   270   3   -0.630000   -20.466132   29.777957   -5.447730   
271   271   3   -0.630000   -16.919650   32.031862   5.447730   
272   272   3   -0.630000   -23.994894   32.084230   -0.419760   
273   273   3   -0.630000   -20.466132   29.777957   -0.419760   
274   274   3   -0.630000   -16.919650   32.031862   0.419760   
275   275   3   -0.630000   -17.906088   28.787382   2.933745   
276   276   3   -0.630000   -23.004319   29.524186   2.933745   
277   277   4   0.712986   -20.661441   32.321263   8.801235   
278   278   4   0.712986   -20.253103   31.794829   14.668725   
279   279   1   0.860000   -20.644117   26.503552   8.801235   
280   280   2   1.030000   -23.357466   29.157853   5.867490   
281   281   2   1.030000   -23.357466   29.157853   11.734980   
282   282   3   -0.630000   -23.994894   32.084230   6.287250   
283   283   3   -0.630000   -20.466132   29.777957   6.287250   
284   284   3   -0.630000   -16.919650   32.031862   17.182710   
285   285   3   -0.630000   -23.994894   32.084230   11.315220   
286   286   3   -0.630000   -20.466132   29.777957   11.315220   
287   287   3   -0.630000   -16.919650   32.031862   12.154741   
288   288   3   -0.630000   -17.906088   28.787382   14.668725   
289   289   3   -0.630000   -23.004319   29.524186   14.668725   
290   290   4   0.712986   -20.661441   32.321263   20.536216   
291   291   4   0.712986   -20.253103   31.794829   26.403706   
292   292   1   0.860000   -20.644117   26.503552   20.536216   
293   293   2   1.030000   -23.357466   29.157853   17.602470   
294   294   2   1.030000   -23.357466   29.157853   23.469961   
295   295   3   -0.630000   -23.994894   32.084230   18.022231   
296   296   3   -0.630000   -20.466132   29.777957   18.022231   
297   297   3   -0.630000   -16.919650   32.031862   28.917690   
298   298   3   -0.630000   -23.994894   32.084230   23.050200   
299   299   3   -0.630000   -20.466132   29.777957   23.050200   
300   300   3   -0.630000   -16.919650   32.031862   23.889721   
301   301   3   -0.630000   -17.906088   28.787382   26.403706   
302   302   3   -0.630000   -23.004319   29.524186   26.403706   
303   303   4   0.712986   -20.661441   32.321263   32.271196   
304   304   4   0.712986   -20.644117   26.503552   32.271196   
305   305   2   1.030000   -23.357466   29.157853   29.337451   
306   306   3   -0.630000   -23.994894   32.084230   29.757211   
307   307   3   -0.630000   -20.466132   29.777957   29.757211   
308   308   4   0.712986   -14.843730   32.303939   -26.403706   
309   309   4   0.712986   -14.843730   32.303939   -14.668725   
310   310   4   0.712986   -14.843730   32.303939   -2.933745   
311   311   4   0.712986   -14.843730   32.303939   8.801235   
312   312   4   0.712986   -14.843730   32.303939   20.536216   
313   313   4   0.712986   -14.843730   32.303939   32.271196   
314   314   4   0.712986   -31.819229   8.558632   -32.271196   
315   315   4   0.712986   -31.836553   14.376344   -32.271196   
316   316   3   -0.630000   -28.485776   8.795665   -29.757211   
317   317   3   -0.630000   -32.014538   11.101938   -29.757211   
318   318   3   -0.630000   -29.472214   5.551185   -32.271196   
319   319   4   0.712986   -32.227567   9.085067   -26.403706   
320   320   4   0.712986   -31.819229   8.558632   -20.536216   
321   321   4   0.712986   -32.210243   3.267355   -26.403706   
322   322   4   0.712986   -31.836553   14.376344   -20.536216   
323   323   3   -0.630000   -32.032258   6.541760   -28.917690   
324   324   3   -0.630000   -28.485776   8.795665   -18.022231   
325   325   3   -0.630000   -32.014538   11.101938   -18.022231   
326   326   3   -0.630000   -32.032258   6.541760   -23.889721   
327   327   3   -0.630000   -28.485776   8.795665   -23.050200   
328   328   3   -0.630000   -32.014538   11.101938   -23.050200   
329   329   3   -0.630000   -29.476351   11.355709   -26.403706   
330   330   3   -0.630000   -29.472214   5.551185   -20.536216   
331   331   4   0.712986   -32.227567   9.085067   -14.668725   
332   332   4   0.712986   -31.819229   8.558632   -8.801235   
333   333   4   0.712986   -32.210243   3.267355   -14.668725   
334   334   4   0.712986   -31.836553   14.376344   -8.801235   
335   335   3   -0.630000   -32.032258   6.541760   -17.182710   
336   336   3   -0.630000   -28.485776   8.795665   -6.287250   
337   337   3   -0.630000   -32.014538   11.101938   -6.287250   
338   338   3   -0.630000   -32.032258   6.541760   -12.154741   
339   339   3   -0.630000   -28.485776   8.795665   -11.315220   
340   340   3   -0.630000   -32.014538   11.101938   -11.315220   
341   341   3   -0.630000   -29.476351   11.355709   -14.668725   
342   342   3   -0.630000   -29.472214   5.551185   -8.801235   
343   343   4   0.712986   -32.227567   9.085067   -2.933745   
344   344   4   0.712986   -31.819229   8.558632   2.933745   
345   345   4   0.712986   -32.210243   3.267355   -2.933745   
346   346   4   0.712986   -31.836553   14.376344   2.933745   
347   347   3   -0.630000   -32.032258   6.541760   -5.447730   
348   348   3   -0.630000   -28.485776   8.795665   5.447730   
349   349   3   -0.630000   -32.014538   11.101938   5.447730   
350   350   3   -0.630000   -32.032258   6.541760   -0.419760   
351   351   3   -0.630000   -28.485776   8.795665   0.419760   
352   352   3   -0.630000   -32.014538   11.101938   0.419760   
353   353   3   -0.630000   -29.476351   11.355709   -2.933745   
354   354   3   -0.630000   -29.472214   5.551185   2.933745   
355   355   4   0.712986   -32.227567   9.085067   8.801235   
356   356   4   0.712986   -31.819229   8.558632   14.668725   
357   357   4   0.712986   -32.210243   3.267355   8.801235   
358   358   4   0.712986   -31.836553   14.376344   14.668725   
359   359   3   -0.630000   -32.032258   6.541760   6.287250   
360   360   3   -0.630000   -28.485776   8.795665   17.182710   
361   361   3   -0.630000   -32.014538   11.101938   17.182710   
362   362   3   -0.630000   -32.032258   6.541760   11.315220   
363   363   3   -0.630000   -28.485776   8.795665   12.154741   
364   364   3   -0.630000   -32.014538   11.101938   12.154741   
365   365   3   -0.630000   -29.476351   11.355709   8.801235   
366   366   3   -0.630000   -29.472214   5.551185   14.668725   
367   367   4   0.712986   -32.227567   9.085067   20.536216   
368   368   4   0.712986   -31.819229   8.558632   26.403706   
369   369   4   0.712986   -32.210243   3.267355   20.536216   
370   370   4   0.712986   -31.836553   14.376344   26.403706   
371   371   3   -0.630000   -32.032258   6.541760   18.022231   
372   372   3   -0.630000   -28.485776   8.795665   28.917690   
373   373   3   -0.630000   -32.014538   11.101938   28.917690   
374   374   3   -0.630000   -32.032258   6.541760   23.050200   
375   375   3   -0.630000   -28.485776   8.795665   23.889721   
376   376   3   -0.630000   -32.014538   11.101938   23.889721   
377   377   3   -0.630000   -29.476351   11.355709   20.536216   
378   378   3   -0.630000   -29.472214   5.551185   26.403706   
379   379   4   0.712986   -32.227567   9.085067   32.271196   
380   380   4   0.712986   -32.210243   3.267355   32.271196   
381   381   3   -0.630000   -32.032258   6.541760   29.757211   
382   382   3   -0.630000   -29.476351   11.355709   32.271196   
383   383   4   0.712986   -26.018842   14.359019   -32.271196   
384   384   4   0.712986   -26.036166   20.176731   -32.271196   
385   385   3   -0.630000   -22.685389   14.596053   -29.757211   
386   386   3   -0.630000   -26.214151   16.902326   -29.757211   
387   387   3   -0.630000   -23.671827   11.351572   -32.271196   
388   388   3   -0.630000   -28.770058   12.088377   -32.271196   
389   389   1   0.860000   -26.427180   14.885454   -26.403706   
390   390   1   0.860000   -26.018842   14.359019   -20.536216   
391   391   1   0.860000   -26.409856   9.067742   -26.403706   
392   392   1   0.860000   -26.036166   20.176731   -20.536216   
393   393   2   1.030000   -29.123205   11.722043   -29.337451   
394   394   2   1.030000   -29.140529   17.539754   -29.337451   
395   395   2   1.030000   -29.123205   11.722043   -23.469961   
396   396   2   1.030000   -29.140529   17.539754   -23.469961   
397   397   3   -0.630000   -29.760633   14.648420   -28.917690   
398   398   3   -0.630000   -26.231871   12.342148   -28.917690   
399   399   3   -0.630000   -22.685389   14.596053   -18.022231   
400   400   3   -0.630000   -26.214151   16.902326   -18.022231   
401   401   3   -0.630000   -29.760633   14.648420   -23.889721   
402   402   3   -0.630000   -26.231871   12.342148   -23.889721   
403   403   3   -0.630000   -22.685389   14.596053   -23.050200   
404   404   3   -0.630000   -26.214151   16.902326   -23.050200   
405   405   3   -0.630000   -28.774195   17.892901   -26.403706   
406   406   3   -0.630000   -23.675964   17.156097   -26.403706   
407   407   3   -0.630000   -23.671827   11.351572   -20.536216   
408   408   3   -0.630000   -28.770058   12.088377   -20.536216   
409   409   1   0.860000   -26.427180   14.885454   -14.668725   
410   410   1   0.860000   -26.018842   14.359019   -8.801235   
411   411   1   0.860000   -26.409856   9.067742   -14.668725   
412   412   1   0.860000   -26.036166   20.176731   -8.801235   
413   413   2   1.030000   -29.123205   11.722043   -17.602470   
414   414   2   1.030000   -29.140529   17.539754   -17.602470   
415   415   2   1.030000   -29.123205   11.722043   -11.734980   
416   416   2   1.030000   -29.140529   17.539754   -11.734980   
417   417   3   -0.630000   -29.760633   14.648420   -17.182710   
418   418   3   -0.630000   -26.231871   12.342148   -17.182710   
419   419   3   -0.630000   -22.685389   14.596053   -6.287250   
420   420   3   -0.630000   -26.214151   16.902326   -6.287250   
421   421   3   -0.630000   -29.760633   14.648420   -12.154741   
422   422   3   -0.630000   -26.231871   12.342148   -12.154741   
423   423   3   -0.630000   -22.685389   14.596053   -11.315220   
424   424   3   -0.630000   -26.214151   16.902326   -11.315220   
425   425   3   -0.630000   -28.774195   17.892901   -14.668725   
426   426   3   -0.630000   -23.675964   17.156097   -14.668725   
427   427   3   -0.630000   -23.671827   11.351572   -8.801235   
428   428   3   -0.630000   -28.770058   12.088377   -8.801235   
429   429   1   0.860000   -26.427180   14.885454   -2.933745   
430   430   1   0.860000   -26.018842   14.359019   2.933745   
431   431   1   0.860000   -26.409856   9.067742   -2.933745   
432   432   1   0.860000   -26.036166   20.176731   2.933745   
433   433   2   1.030000   -29.123205   11.722043   -5.867490   
434   434   2   1.030000   -29.140529   17.539754   -5.867490   
435   435   2   1.030000   -29.123205   11.722043   -0.000000   
436   436   2   1.030000   -29.140529   17.539754   -0.000000   
437   437   3   -0.630000   -29.760633   14.648420   -5.447730   
438   438   3   -0.630000   -26.231871   12.342148   -5.447730   
439   439   3   -0.630000   -22.685389   14.596053   5.447730   
440   440   3   -0.630000   -26.214151   16.902326   5.447730   
441   441   3   -0.630000   -29.760633   14.648420   -0.419760   
442   442   3   -0.630000   -26.231871   12.342148   -0.419760   
443   443   3   -0.630000   -22.685389   14.596053   0.419760   
444   444   3   -0.630000   -26.214151   16.902326   0.419760   
445   445   3   -0.630000   -28.774195   17.892901   -2.933745   
446   446   3   -0.630000   -23.675964   17.156097   -2.933745   
447   447   3   -0.630000   -23.671827   11.351572   2.933745   
448   448   3   -0.630000   -28.770058   12.088377   2.933745   
449   449   1   0.860000   -26.427180   14.885454   8.801235   
450   450   1   0.860000   -26.018842   14.359019   14.668725   
451   451   1   0.860000   -26.409856   9.067742   8.801235   
452   452   1   0.860000   -26.036166   20.176731   14.668725   
453   453   2   1.030000   -29.123205   11.722043   5.867490   
454   454   2   1.030000   -29.140529   17.539754   5.867490   
455   455   2   1.030000   -29.123205   11.722043   11.734980   