191
 Atoms. Timestep: 110188
3 -6.26106 9.62026 -5.62696
3 -5.43472 6.01049 -10.3916
4 -9.57367 8.58091 -3.29516
4 -9.15637 9.15987 3.10173
4 -8.67743 3.05458 -3.3107
3 -9.40338 5.66745 -6.21128
3 -6.10909 9.80498 5.78768
3 -9.8213 5.47118 -0.572138
3 -6.8631 9.28868 -0.3796
3 -6.15672 6.48017 3.0405
4 -8.5242 3.27269 9.12966
3 -9.31263 6.44573 6.14017
4 -3.05228 8.72921 -2.68626
4 -3.27372 9.2316 8.7871
4 -8.82217 -3.0255 -9.43617
4 -8.43929 2.97626 -9.57454
3 -6.02913 -3.06054 -6.22687
3 -9.42956 0.413049 -6.88444
3 -6.01124 -5.74293 -9.92466
4 -9.00672 -3.20317 -3.1721
4 -8.87673 -3.00061 3.17055
4 -9.68757 -9.01817 -3.39596
4 -9.12394 3.61081 3.0394
3 -9.59886 -5.76363 -6.61353
3 -5.90051 -2.90018 6.15777
3 -9.66603 0.0803744 6.16646
3 -9.9166 -6.20782 -0.594177
3 -6.15858 -3.1988 0.0332984
3 -9.70223 -0.346379 -0.109488
3 -6.16263 0.102291 -3.15245
3 -6.13573 -6.006 3.23039
4 -8.76986 -2.77981 8.68445
3 -9.24595 -5.87542 5.95066
3 -5.56859 -0.0327765 10.104
4 -2.78185 3.12879 -8.91951
4 -3.09825 9.25518 -8.60356
3 0.367195 3.18288 -6.12574
3 -2.97162 6.13234 -6.15307
3 0.123991 0.262403 -9.45004
3 -5.76779 -0.0516822 -9.72638
1 -3.18476 3.01379 -2.98541
1 -3.39473 3.138 3.12053
1 -3.02954 -2.98336 -3.30664
4 -3.10465 9.06302 2.83558
2 -6.49899 -0.0246314 -6.41353
2 -6.30828 6.5211 -6.53791
2 -6.1955 -0.111797 -0.123741
2 -6.63355 6.08785 0.00282068
3 -5.78294 3.20758 -6.48807
3 -3.04209 0.00685317 -6.3553
3 0.00612738 3.3093 6.29806
3 -3.16493 6.23827 5.98606
3 -6.39546 2.98526 -0.0951019
3 -3.13194 0.0182876 0.464654
3 -0.0585313 3.26142 0.0618927
3 -3.18136 5.90615 0.263222
3 -5.97503 5.71607 -3.14794
3 -0.0586004 6.16908 -3.10916
3 -0.116395 0.109821 3.25782
3 -6.32708 0.200922 3.23774
4 -3.05628 3.53864 8.87575
4 -2.5753 -3.36505 8.96232
2 -6.23459 0.048474 6.4028
2 -6.21459 6.50633 6.20705
3 -6.06096 3.35016 5.9996
3 -3.03718 0.149191 6.49031
3 -5.9665 6.30158 9.7225
3 -0.174242 6.74362 9.90139
4 2.99254 8.69638 -9.09492
3 5.73637 9.72921 -6.52048
3 5.96938 5.61506 -9.34656
3 0.136832 6.10874 -9.73069
4 3.20067 8.90555 -3.20279
4 2.87868 9.56689 2.8329
1 2.88424 3.0485 -2.86402
2 0.0563136 6.40802 -6.22778
2 -0.123467 6.54038 0.0427328
3 0.0932459 9.7756 -6.31413
3 3.22209 6.30855 -5.99862
3 6.40018 9.41584 6.20895
3 -0.20019 9.69415 0.220375
3 3.09079 6.49737 0.284612
3 6.172 9.47752 -0.0623099
3 6.19666 6.15754 3.34638
3 0.119971 6.40267 3.27855
4 3.2761 9.49299 9.06417
4 3.01858 2.51969 9.20523
2 -0.0597387 6.69459 6.60158
3 0.0836687 9.9507 6.13042
3 2.96863 6.33771 6.45555
4 9.06823 8.99991 -3.13733
4 -8.32858 -9.67446 3.26356
4 -3.35709 -9.15556 -8.7598
4 -3.04594 -3.14151 -8.75336
3 -0.444525 -9.50163 -6.15082
3 -3.28255 -6.35379 -6.05675
4 -3.34077 -9.06763 -3.15425
4 -2.46079 -8.65354 3.01434
1 -3.2383 -3.28868 2.93072
2 -6.4842 -6.44136 -6.74712
2 -6.81785 -6.37705 0.0826206
3 -6.6555 -9.83208 -6.23632
3 0.634097 -9.62796 6.82794
3 -3.13645 -5.89227 5.90032
3 -6.61464 -9.44157 -0.0593119
3 -0.214613 -9.52377 -0.22462
3 -3.518 -6.31952 -0.268074
3 -6.66563 -6.61661 -3.38366
3 -0.122985 -6.02233 -3.14261
4 -2.81096 -8.029 9.23787
2 -6.26265 -6.28848 6.29102
3 -5.25437 -9.30054 6.18509
3 -6.0735 -5.7472 9.53127
3 0.346777 -6.04483 9.84863
4 3.00139 -2.81692 -9.33601
4 3.21433 2.89816 -8.94088
3 6.3505 -3.21192 -6.04474
3 3.2274 -0.213129 -6.33719
3 6.48815 -6.44963 -9.57814
3 0.196032 -6.76136 -9.67103
1 3.1111 -3.31781 -3.18266
1 3.194 -3.17322 3.07844
4 2.639 -8.92929 -3.03384
1 3.00982 3.19558 3.23234
2 -0.100677 -6.31426 -6.30413
2 -0.00307104 0.0712223 -6.12342
2 -0.457179 -6.37162 0.0935181
2 0.118286 0.0131229 0.284159
3 -0.193559 -3.05778 -6.25263
3 2.97423 -6.18201 -6.15599
3 6.15697 -3.08967 5.89337
3 3.18353 0.000708127 6.13639
3 -0.449316 -3.21962 0.00816746
3 2.81639 -6.52809 -0.0701367
3 6.21406 -3.29015 -0.165896
3 3.12664 -0.545797 0.133993
3 -0.0600863 -0.080922 -2.87863
3 6.17997 -0.0160767 -3.09328
3 5.94 -6.15346 2.93005
3 0.352406 -5.81295 3.30869
4 3.16503 -3.06604 8.75688
4 3.86012 -9.16545 9.0484
2 0.142678 -6.24959 6.47398
2 -0.0661424 0.166731 6.49992
3 0.191403 -2.93927 6.47456
3 3.19155 -6.30427 6.33859
3 -0.362363 0.402811 9.73129
3 6.58972 0.117627 9.51391
4 8.95764 2.87471 -8.69039
3 9.7312 5.56215 -5.72709
3 6.52027 -0.53011 -9.53457
4 8.58956 3.09297 -2.75964
4 8.70037 3.19024 2.93614
4 9.08823 -2.97746 -3.05231
4 9.24767 8.74652 3.04768
2 6.3367 0.185732 -6.30911
2 6.41771 6.46572 -6.2143
2 6.27245 -0.0535608 0.184893
2 6.2884 6.31955 0.133529
3 6.19272 3.31608 -5.90453
3 9.41474 -0.0395336 -5.84522
3 9.70887 5.69897 5.72567
3 5.76213 3.11443 -0.0105053
3 9.4115 -0.0442889 -0.203431
3 9.64754 6.07831 0.247441
3 6.17454 6.22304 -3.08164
3 6.0521 0.228234 3.17149
4 9.2042 2.95444 8.69977
4 8.95992 -3.39954 8.45442
2 6.44625 -0.0549005 6.25831
2 6.47891 6.23859 6.51056
3 6.06781 3.17267 6.38163
3 9.70632 -0.188666 5.86528
3 6.32988 6.57458 9.58188
4 3.24461 -9.40114 -8.3223
4 3.02864 -8.85999 3.3824
4 9.38931 -3.36004 -8.506
3 9.66961 -6.41706 -5.79959
4 8.85437 -9.28621 -2.97601
4 8.67056 -9.07843 2.87816
4 8.92427 -3.05389 2.70599
2 6.37076 -6.48432 -6.2497
2 5.95849 -6.49473 -0.0756604
3 6.25222 -10.0377 -5.79565
3 9.46359 -6.35583 5.81284
3 5.80249 -9.67363 -0.023277
3 9.03007 -6.20524 0.142682
3 5.8377 -6.24999 -3.13215
2 6.41766 -6.66966 6.20378
3 6.06935 -9.95075 5.90654
3 5.88785 -5.82661 9.79783
