191
 Atoms. Timestep: 188
3 -5.82019 9.5075 -5.90052
3 -5.83153 5.85862 -9.52645
4 -8.77869 8.84394 -3.13336
4 -8.7847 8.86352 3.06032
4 -8.77597 3.01827 -3.00994
3 -9.47245 5.88498 -5.89262
3 -5.83158 9.54458 5.82897
3 -9.43974 6.17381 -0.0286863
3 -6.09648 9.48984 -0.0359246
3 -6.04151 6.09783 3.07714
4 -8.81365 3.16071 8.79932
3 -9.48384 5.92206 5.83688
4 -2.95299 8.79383 -3.02255
4 -3.06934 8.85824 8.78688
4 -8.82184 -3.08867 -8.81667
4 -8.79652 3.10495 -8.83623
3 -6.07008 -3.09663 -6.05947
3 -9.45886 0.0192662 -6.14451
3 -5.87948 -5.87079 -9.48941
4 -8.80043 -2.96537 -2.99105
4 -8.80624 -2.94645 2.99264
4 -8.85079 -8.79148 -3.07767
4 -8.78178 3.03719 2.97375
3 -9.52041 -5.84443 -5.85558
3 -6.08185 -3.05829 6.06714
3 -9.47077 0.0580626 6.12588
3 -9.4899 -6.09648 0.0100612
3 -6.09905 -3.07668 0.00380568
3 -9.48321 0.0387395 -0.00933065
3 -6.08336 0.0150567 -3.10756
3 -6.09108 -6.02868 3.11544
4 -8.83897 -3.03291 8.81888
3 -9.53179 -5.80734 5.87392
3 -6.14436 0.0549885 9.45881
4 -2.97107 2.97625 -8.80353
4 -3.05222 8.80248 -8.84867
3 0.0185895 3.0823 -6.09618
3 -3.07157 6.05676 -6.0855
3 0.0092082 -0.0299841 -9.48324
3 -6.12598 -0.00486334 -9.47089
1 -3.02406 3.04223 -3.05204
1 -3.02997 3.06145 3.02686
1 -3.04891 -3.03662 -3.03284
4 -2.9588 8.81275 2.96114
2 -6.25417 0.00577982 -6.26643
2 -6.27995 6.31768 -6.33804
2 -6.28928 0.0256921 -0.0061881
2 -6.23465 6.28579 -0.0259282
3 -6.04471 3.10783 -6.07907
3 -3.09565 -0.00657385 -6.08944
3 0.00676978 3.12079 6.07659
3 -3.08334 6.0951 6.04111
3 -6.07369 3.12641 -0.0157826
3 -3.10938 0.012702 -0.00305937
3 0.0127116 3.10937 -0.00981884
3 -3.07668 6.09901 -0.0222713
3 -6.03548 6.07822 -3.12737
3 0.0278936 6.07653 -3.12079
3 -0.00301922 0.00983126 3.10939
3 -6.08938 0.0346697 3.09558
4 -2.98814 3.03184 8.77874
4 -3.0126 -2.9518 8.79764
2 -6.26632 0.0453672 6.25411
2 -6.2922 6.35759 6.28576
3 -6.05649 3.14617 6.04754
3 -3.10747 0.031914 6.08334
3 -5.84998 5.9187 9.47787
3 0.0158912 6.16507 9.44548
4 3.14144 8.77718 -8.84257
3 5.90927 9.45958 -5.88898
3 5.89793 5.8107 -9.51491
3 0.0342719 6.10522 -9.48422
4 3.03068 8.76938 -3.01666
4 3.02487 8.7883 2.96703
1 3.05482 3.0174 -3.04606
2 0.0316715 6.24042 -6.28003
2 0.0257115 6.28925 -0.0198603
3 0.0446509 9.44538 -6.16508
3 3.13292 6.03141 -6.0794
3 5.89788 9.49667 5.84051
3 0.0387688 9.48317 -0.0299462
3 3.12644 6.07367 -0.0161679
3 6.17387 9.43971 -0.0238516
3 6.08506 6.0483 3.08907
3 0.0218704 6.09615 3.08235
4 3.12431 8.83294 8.79298
4 2.99553 3.0074 8.78463
2 0.0195141 6.28001 6.2405
3 0.0327364 9.48417 6.1053
3 3.12114 6.06976 6.04721
4 8.8568 8.77189 -3.11601
4 -8.8568 -8.77189 3.11601
4 -3.12431 -8.83294 -8.79298
4 -2.99553 -3.0074 -8.78463
3 -0.0327364 -9.48417 -6.1053
3 -3.12114 -6.06976 -6.04721
4 -3.02487 -8.7883 -2.96703
4 -3.03068 -8.76938 3.01666
1 -3.05482 -3.0174 3.04606
2 -6.33155 -6.30602 -6.29818
2 -6.28584 -6.23464 0.0136091
3 -5.89788 -9.49667 -5.84051
3 -0.0446509 -9.44538 6.16508
3 -3.13292 -6.03141 6.0794
3 -6.17387 -9.43971 0.0238516
3 -0.0387688 -9.48317 0.0299462
3 -3.12644 -6.07367 0.0161679
3 -6.08506 -6.0483 -3.08907
3 -0.0218704 -6.09615 -3.08235
4 -3.14144 -8.77718 8.84257
2 -6.34381 -6.26611 6.32562
3 -5.90927 -9.45958 5.88898
3 -5.89793 -5.8107 9.51491
3 -0.0342719 -6.10522 9.48422
4 2.98814 -3.03184 -8.77874
4 3.0126 2.9518 -8.79764
3 6.05649 -3.14617 -6.04754
3 3.10747 -0.031914 -6.08334
3 5.84998 -5.9187 -9.47787
3 -0.0158912 -6.16507 -9.44548
1 3.02997 -3.06145 -3.02686
1 3.02406 -3.04223 3.05204
4 2.9588 -8.81275 -2.96114
1 3.04891 3.03662 3.03284
2 -0.0195141 -6.28001 -6.2405
2 0.00610689 -0.0198855 -6.2893
2 -0.0257115 -6.28925 0.0198603
2 -8.12876e-16 -1.54969e-16 -3.56654e-16
3 -0.00676978 -3.12079 -6.07659
3 3.08334 -6.0951 -6.04111
3 6.04471 -3.10783 6.07907
3 3.09565 0.00657385 6.08944
3 -0.0127116 -3.10937 0.00981884
3 3.07668 -6.09901 0.0222713
3 6.07369 -3.12641 0.0157826
3 3.10938 -0.012702 0.00305937
3 0.00301922 -0.00983126 -3.10939
3 6.08938 -0.0346697 -3.09558
3 6.03548 -6.07822 3.12737
3 -0.0278936 -6.07653 3.12079
4 2.97107 -2.97625 8.80353
4 3.05222 -8.80248 8.84867
2 -0.0316715 -6.24042 6.28003
2 -0.00610689 0.0198855 6.2893
3 -0.0185895 -3.0823 6.09618
3 3.07157 -6.05676 6.0855
3 -0.0092082 0.0299841 9.48324
3 6.12598 0.00486334 9.47089
4 8.83897 3.03291 -8.81888
3 9.53179 5.80734 -5.87392
3 6.14436 -0.0549885 -9.45881
4 8.80624 2.94645 -2.99264
4 8.80043 2.96537 2.99105
4 8.78178 -3.03719 -2.97375
4 8.85079 8.79148 3.07767
2 6.26632 -0.0453672 -6.25411
2 6.34381 6.26611 -6.32562
2 6.28928 -0.0256921 0.0061881
2 6.28584 6.23464 -0.0136091
3 6.08185 3.05829 -6.06714
3 9.47077 -0.0580626 -6.12588
3 9.52041 5.84443 5.85558
3 6.09905 3.07668 -0.00380568
3 9.48321 -0.0387395 0.00933065
3 9.4899 6.09648 -0.0100612
3 6.09108 6.02868 -3.11544
3 6.08336 -0.0150567 3.10756
4 8.82184 3.08867 8.81667
4 8.79652 -3.10495 8.83623
2 6.25417 -0.00577982 6.26643
2 6.33155 6.30602 6.29818
3 6.07008 3.09663 6.05947
3 9.45886 -0.0192662 6.14451
3 5.87948 5.87079 9.48941
4 3.06934 -8.85824 -8.78688
4 2.95299 -8.79383 3.02255
4 8.81365 -3.16071 -8.79932
3 9.48384 -5.92206 -5.83688
4 8.7847 -8.86352 -3.06032
4 8.77869 -8.84394 3.13336
4 8.77597 -3.01827 3.00994
2 6.2922 -6.35759 -6.28576
2 6.23465 -6.28579 0.0259282
3 5.83158 -9.54458 -5.82897
3 9.47245 -5.88498 5.89262
3 6.09648 -9.48984 0.0359246
3 9.43974 -6.17381 0.0286863
3 6.04151 -6.09783 -3.07714
2 6.27995 -6.31768 6.33804
3 5.82019 -9.5075 5.90052
3 5.83153 -5.85862 9.52645
