63
 Atoms. Timestep: 10001078
4 -5.34093 5.08042 -0.269805
4 -5.3564 -0.0260673 -5.49483
3 -2.59464 0.0580751 -3.0945
3 -6.08191 2.50897 -2.9895
3 -2.50167 -2.52233 -5.98467
4 -5.27364 -0.0514773 -0.368312
4 -5.22476 -0.386972 4.85329
4 -5.21132 -5.24259 -0.453101
3 -5.66238 -2.6935 -2.96099
3 -6.11568 -2.79593 2.09663
3 -2.62647 0.164316 2.62326
3 -6.44091 2.20648 2.28864
3 -2.80563 2.76568 -0.339883
3 -2.64171 -2.72852 5.86003
4 -0.0147335 5.53916 -5.52027
3 2.88506 6.22443 -2.68907
3 3.07931 3.28951 -5.55797
3 -2.35729 2.73931 -6.18547
4 -0.244738 5.37308 0.06491
4 -0.0406629 5.32991 5.73271
1 0.0297112 0.0870446 -0.251119
2 -3.02956 2.95742 -3.34454
2 -3.47375 3.09206 2.795
3 -2.92162 5.76956 -2.96419
3 -0.11919 3.0423 -2.78172
3 -3.30942 5.99334 2.74086
3 -0.2611 3.11984 2.81683
3 2.62136 6.04547 3.35013
3 2.24269 2.68813 6.17102
3 -2.9528 2.29822 6.14772
4 4.89003 5.65872 0.414491
4 0.339577 -5.53038 -5.05795
4 0.436368 0.308092 -5.24124
3 3.38433 -5.86853 -2.81038
3 0.435708 -2.78171 -2.95392
4 0.0236758 -5.28196 0.032251
4 -0.618891 -5.70271 5.13171
4 -0.11269 -0.24436 5.492
2 -2.53185 -2.92523 -3.20835
2 -3.06592 -2.88735 2.80296
3 -2.28016 -5.8648 -2.82217
3 -3.31201 -5.7441 2.62344
3 2.60195 -6.05954 2.68159
3 -0.187788 -2.84391 2.62598
3 -2.71692 -2.7683 -0.182708
3 2.87918 -2.75856 0.104733
4 6.31405 0.412472 -5.06542
3 6.07681 2.69188 -1.78963
3 3.22806 -1.95776 -5.91168
4 5.3512 -0.0607343 0.598503
4 4.74722 -0.144728 5.69376
4 5.32446 -5.50988 0.22334
2 3.32659 -2.62937 -3.00452
2 2.76138 3.09727 -2.58926
2 2.6694 -3.06502 3.05252
2 2.57179 2.82284 3.07085
3 3.11327 0.264734 -2.60393
3 6.41685 -2.31824 -2.23843
3 2.53694 -0.0659572 2.86835
3 5.85324 -2.97578 2.96208
3 5.54239 2.7956 3.08178
3 2.61509 3.07545 0.216544
3 2.34522 -2.95699 5.84764
