63
 Atoms. Timestep: 76
4 -5.31446 5.3282 -4.85613e-14
4 -5.31806 0.0328282 -5.29537
3 -2.78558 0.0311096 -2.76289
3 -5.94996 2.67931 -2.64606
3 -2.67054 -2.61502 -5.92907
4 -5.28274 0.0328042 5.26503e-16
4 -5.31806 0.0328282 5.29537
4 -5.32165 -5.26254 4.85055e-14
3 -5.95355 -2.6128 -2.64606
3 -5.95355 -2.6128 2.64606
3 -2.78558 0.0311096 2.76289
3 -5.94996 2.67931 2.64606
3 -2.7837 2.794 1.30399e-12
3 -2.67054 -2.61502 5.92907
4 -0.0190934 5.3246 -5.29537
3 2.62739 5.95651 -2.64606
3 2.62516 2.67349 -5.92907
3 -2.66695 2.67709 -5.92907
4 -0.0191174 5.28929 4.52303e-16
4 -0.0190934 5.3246 5.29537
1 -0.022687 0.0292346 2.12293e-16
2 -2.98837 2.99895 -2.9677
2 -2.98837 2.99895 2.9677
3 -2.66472 5.9601 -2.64606
3 -0.020812 2.79213 -2.76289
3 -2.66472 5.9601 2.64606
3 -0.020812 2.79213 2.76289
3 2.62739 5.95651 2.64606
3 2.62516 2.67349 5.92907
3 -2.66695 2.67709 5.92907
4 5.27627 5.32101 4.83441e-14
4 -0.0262806 -5.26613 -5.29537
4 -0.022687 0.0292346 -5.26006
3 2.61934 -5.90163 -2.64606
3 -0.024562 -2.73366 -2.76289
4 -0.0262566 -5.23082 -2.99753e-16
4 -0.0262806 -5.26613 5.29537
4 -0.022687 0.0292346 5.26006
2 -2.9924 -2.93645 -2.9677
2 -2.9924 -2.93645 2.9677
3 -2.67277 -5.89804 -2.64606
3 -2.67277 -5.89804 2.64606
3 2.61934 -5.90163 2.64606
3 -0.024562 -2.73366 2.76289
3 -2.78745 -2.73178 -1.31742e-12
3 2.73833 -2.73553 1.33081e-12
4 5.27268 0.025641 -5.29537
3 5.90818 2.67127 -2.64606
3 2.62157 -2.61862 -5.92907
4 5.23737 0.025665 4.81926e-17
4 5.27268 0.025641 5.29537
4 5.26909 -5.26973 -4.84448e-14
2 2.943 -2.94048 -2.9677
2 2.94703 2.99492 -2.9677
2 2.943 -2.94048 2.9677
2 2.94703 2.99492 2.9677
3 2.7402 0.0273596 -2.76289
3 5.90458 -2.62084 -2.64606
3 2.7402 0.0273596 2.76289
3 5.90458 -2.62084 2.64606
3 5.90818 2.67127 2.64606
3 2.74208 2.79025 -1.3162e-12
3 2.62157 -2.61862 5.92907
